    4    4    1    1
  0.9415985E+02  0.4220004E-09  0.4220004E-09  0.2442133E-08  0.5000000E-15
  1.000000000000000E-004
  CAR 
 Tl2Se2_P-3m1                            
     18     96     13
 
  0.0000000E+00  0.0000000E+00  0.0000000E+00  0.1040583E-02
    1      -15.679801   1.000000
    2      -15.583991   1.000000
    3       -9.429056   1.000000
    4       -6.986040   1.000000
    5       -3.814005   1.000000
    6       -3.813991   1.000000
    7       -3.720439   1.000000
    8       -3.720428   1.000000
    9       -3.393711   1.000000
   10       -2.730203   0.000000
   11       -1.024656   0.000000
   12        1.472540   0.000000
   13        1.473172   0.000000
 
  0.3225806E-01  0.3469447E-17  0.0000000E+00  0.6243496E-02
    1      -15.673341   1.000000
    2      -15.577892   1.000000
    3       -9.427488   1.000000
    4       -6.994072   1.000000
    5       -3.882077   1.000000
    6       -3.825495   1.000000
    7       -3.788788   1.000000
    8       -3.730055   1.000000
    9       -3.377086   1.000000
   10       -2.663774   0.000000
   11       -0.969750   0.000000
   12        1.390381   0.000000
   13        1.482193   0.000000
 
  0.6451613E-01  0.6938894E-17  0.0000000E+00  0.6243496E-02
    1      -15.654086   1.000000
    2      -15.559731   1.000000
    3       -9.423160   1.000000
    4       -7.018957   1.000000
    5       -4.051693   1.000000
    6       -3.950634   1.000000
    7       -3.859148   1.000000
    8       -3.758296   1.000000
    9       -3.349495   1.000000
   10       -2.508601   0.000000
   11       -0.818813   0.000000
   12        1.187234   0.000000
   13        1.505325   0.000000
 
  0.9677419E-01  0.0000000E+00  0.0000000E+00  0.6243496E-02
    1      -15.622455   1.000000
    2      -15.529943   1.000000
    3       -9.417206   1.000000
    4       -7.062880   1.000000
    5       -4.273607   1.000000
    6       -4.145814   1.000000
    7       -3.912634   1.000000
    8       -3.803392   1.000000
    9       -3.332171   1.000000
   10       -2.327486   0.000000
   11       -0.605157   0.000000
   12        0.931387   0.000000
   13        1.542195   0.000000
 
  0.1290323E+00  0.1387779E-16  0.0000000E+00  0.6243496E-02
    1      -15.579162   1.000000
    2      -15.489271   1.000000
    3       -9.411468   1.000000
    4       -7.128844   1.000000
    5       -4.515736   1.000000
    6       -4.340426   1.000000
    7       -3.982491   1.000000
    8       -3.862634   1.000000
    9       -3.329994   1.000000
   10       -2.156778   0.000000
   11       -0.370721   0.000000
   12        0.671038   0.000000
   13        1.586485   0.000000
 
  0.1612903E+00  0.0000000E+00  0.0000000E+00  0.6243496E-02
    1      -15.525245   1.000000
    2      -15.438789   1.000000
    3       -9.408427   1.000000
    4       -7.219560   1.000000
    5       -4.757467   1.000000
    6       -4.515753   1.000000
    7       -4.064594   1.000000
    8       -3.932683   1.000000
    9       -3.344448   1.000000
   10       -2.016515   0.000000
   11       -0.171065   0.000000
   12        0.449044   0.000000
   13        1.639528   0.000000
 
  0.1935484E+00  0.0000000E+00  0.0000000E+00  0.6243496E-02
    1      -15.462081   1.000000
    2      -15.379915   1.000000
    3       -9.410957   1.000000
    4       -7.335956   1.000000
    5       -4.983965   1.000000
    6       -4.661571   1.000000
    7       -4.154551   1.000000
    8       -4.009887   1.000000
    9       -3.377621   1.000000
   10       -1.917836   0.000000
   11       -0.102795   0.000000
   12        0.338575   0.000000
   13        1.678788   0.000000
 
  0.2258065E+00 -0.1387779E-16  0.0000000E+00  0.6243496E-02
    1      -15.391447   1.000000
    2      -15.314456   1.000000
    3       -9.421936   1.000000
    4       -7.475848   1.000000
    5       -5.183789   1.000000
    6       -4.774216   1.000000
    7       -4.248063   1.000000
    8       -4.090571   1.000000
    9       -3.431743   1.000000
   10       -1.864319   0.000000
   11       -0.197987   0.000000
   12        0.350864   0.000000
   13        1.720590   0.000000
 
  0.2580645E+00  0.2775558E-16  0.0000000E+00  0.6243496E-02
    1      -15.315538   1.000000
    2      -15.244615   1.000000
    3       -9.443634   1.000000
    4       -7.633550   1.000000
    5       -5.348201   1.000000
    6       -4.855628   1.000000
    7       -4.341114   1.000000
    8       -4.171247   1.000000
    9       -3.507546   1.000000
   10       -1.852396   0.000000
   11       -0.333141   0.000000
   12        0.363460   0.000000
   13        1.743530   0.000000
 
  0.2903226E+00  0.0000000E+00  0.0000000E+00  0.6243496E-02
    1      -15.236997   1.000000
    2      -15.173043   1.000000
    3       -9.476950   1.000000
    4       -7.800653   1.000000
    5       -5.471214   1.000000
    6       -4.912139   1.000000
    7       -4.430121   1.000000
    8       -4.248735   1.000000
    9       -3.602587   1.000000
   10       -1.873636   0.000000
   11       -0.451326   0.000000
   12        0.340980   0.000000
   13        1.750117   0.000000
 
  0.3225806E+00  0.0000000E+00  0.0000000E+00  0.6243496E-02
    1      -15.158910   1.000000
    2      -15.102782   1.000000
    3       -9.520733   1.000000
    4       -7.967402   1.000000
    5       -5.549894   1.000000
    6       -4.953068   1.000000
    7       -4.511973   1.000000
    8       -4.320241   1.000000
    9       -3.710340   1.000000
   10       -1.917998   0.000000
   11       -0.539897   0.000000
   12        0.293185   0.000000
   13        1.757427   0.000000
 
  0.3548387E+00  0.0000000E+00  0.0000000E+00  0.6243496E-02
    1      -15.084750   1.000000
    2      -15.037186   1.000000
    3       -9.571501   1.000000
    4       -8.123970   1.000000
    5       -5.584580   1.000000
    6       -4.989395   1.000000
    7       -4.584051   1.000000
    8       -4.383384   1.000000
    9       -3.820599   1.000000
   10       -1.975726   0.000000
   11       -0.597359   0.000000
   12        0.232241   0.000000
   13        1.758529   0.000000
 
  0.3870968E+00  0.0000000E+00  0.0000000E+00  0.6243496E-02
    1      -15.018221   1.000000
    2      -14.979781   1.000000
    3       -9.623770   1.000000
    4       -8.261305   1.000000
    5       -5.578793   1.000000
    6       -5.032054   1.000000
    7       -4.644211   1.000000
    8       -4.436203   1.000000
    9       -3.921277   1.000000
   10       -2.037420   0.000000
   11       -0.627314   0.000000
   12        0.167766   0.000000
   13        1.756403   0.000000
 
  0.4193548E+00  0.0000000E+00  0.0000000E+00  0.6243496E-02
    1      -14.963082   1.000000
    2      -14.934024   1.000000
    3       -9.671006   1.000000
    4       -8.371647   1.000000
    5       -5.539064   1.000000
    6       -5.088969   1.000000
    7       -4.690773   1.000000
    8       -4.477153   1.000000
    9       -4.001560   1.000000
   10       -2.093953   0.000000
   11       -0.636904   0.000000
   12        0.108177   0.000000
   13        1.752619   0.000000
 
  0.4516129E+00 -0.2775558E-16  0.0000000E+00  0.6243496E-02
    1      -14.922863   1.000000
    2      -14.902831   1.000000
    3       -9.706788   1.000000
    4       -8.448824   1.000000
    5       -5.475620   1.000000
    6       -5.160386   1.000000
    7       -4.722494   1.000000
    8       -4.505083   1.000000
    9       -4.055250   1.000000
   10       -2.137056   0.000000
   11       -0.635272   0.000000
   12        0.061685   0.000000
   13        1.749316   0.000000
 
  0.4838710E+00 -0.2775558E-16  0.0000000E+00  0.6243496E-02
    1      -14.900914   1.000000
    2      -14.887738   1.000000
    3       -9.726073   1.000000
    4       -8.488526   1.000000
    5       -5.410159   1.000000
    6       -5.229341   1.000000
    7       -4.738557   1.000000
    8       -4.519237   1.000000
    9       -4.081447   1.000000
   10       -2.160352   0.000000
   11       -0.631480   0.000000
   12        0.035932   0.000000
   13        1.747399   0.000000
 
  0.3225806E-01  0.3225806E-01  0.0000000E+00  0.6243496E-02
    1      -15.660482   1.000000
    2      -15.565759   1.000000
    3       -9.424539   1.000000
    4       -7.010530   1.000000
    5       -3.996853   1.000000
    6       -3.909736   1.000000
    7       -3.839935   1.000000
    8       -3.752217   1.000000
    9       -3.356284   1.000000
   10       -2.554642   0.000000
   11       -0.866878   0.000000
   12        1.251360   0.000000
   13        1.494760   0.000000
 
  0.6451613E-01  0.3225806E-01  0.0000000E+00  0.1248699E-01
    1      -15.635036   1.000000
    2      -15.541782   1.000000
    3       -9.419394   1.000000
    4       -7.044930   1.000000
    5       -4.186499   1.000000
    6       -4.080044   1.000000
    7       -3.885879   1.000000
    8       -3.793302   1.000000
    9       -3.336415   1.000000
   10       -2.390691   0.000000
   11       -0.684530   0.000000
   12        1.030811   0.000000
   13        1.517633   0.000000
 
  0.9677419E-01  0.3225806E-01  0.0000000E+00  0.1248699E-01
    1      -15.597569   1.000000
    2      -15.506549   1.000000
    3       -9.413539   1.000000
    4       -7.099873   1.000000
    5       -4.413494   1.000000
    6       -4.266134   1.000000
    7       -3.951303   1.000000
    8       -3.849188   1.000000
    9       -3.328299   1.000000
   10       -2.218176   0.000000
   11       -0.459002   0.000000
   12        0.781845   0.000000
   13        1.546923   0.000000
 
  0.1290323E+00  0.3225806E-01  0.0000000E+00  0.1248699E-01
    1      -15.548948   1.000000
    2      -15.460956   1.000000
    3       -9.409130   1.000000
    4       -7.178236   1.000000
    5       -4.651151   1.000000
    6       -4.443569   1.000000
    7       -4.031910   1.000000
    8       -3.917315   1.000000
    9       -3.334974   1.000000
   10       -2.064324   0.000000
   11       -0.235901   0.000000
   12        0.546400   0.000000
   13        1.593732   0.000000
 
  0.1612903E+00  0.3225806E-01  0.0000000E+00  0.1248699E-01
    1      -15.490385   1.000000
    2      -15.406253   1.000000
    3       -9.408856   1.000000
    4       -7.281863   1.000000
    5       -4.881570   1.000000
    6       -4.598085   1.000000
    7       -4.122890   1.000000
    8       -3.994315   1.000000
    9       -3.358571   1.000000
   10       -1.945196   0.000000
   11       -0.090400   0.000000
   12        0.381488   0.000000
   13        1.605224   0.000000
 
  0.1935484E+00  0.3225806E-01  0.0000000E+00  0.1248699E-01
    1      -15.423438   1.000000
    2      -15.344039   1.000000
    3       -9.415611   1.000000
    4       -7.410121   1.000000
    5       -5.091583   1.000000
    6       -4.722622   1.000000
    7       -4.219450   1.000000
    8       -4.076398   1.000000
    9       -3.401545   1.000000
   10       -1.868909   0.000000
   11       -0.120767   0.000000
   12        0.360451   0.000000
   13        1.634700   0.000000
 
  0.2258065E+00  0.3225806E-01  0.0000000E+00  0.1248699E-01
    1      -15.350097   1.000000
    2      -15.276317   1.000000
    3       -9.432003   1.000000
    4       -7.559016   1.000000
    5       -5.271079   1.000000
    6       -4.816281   1.000000
    7       -4.317038   1.000000
    8       -4.159735   1.000000
    9       -3.465667   1.000000
   10       -1.836001   0.000000
   11       -0.249222   0.000000
   12        0.392039   0.000000
   13        1.659834   0.000000
 
  0.2580645E+00  0.3225806E-01  0.0000000E+00  0.1248699E-01
    1      -15.272765   1.000000
    2      -15.205502   1.000000
    3       -9.459661   1.000000
    4       -7.721437   1.000000
    5       -5.412665   1.000000
    6       -4.883293   1.000000
    7       -4.411452   1.000000
    8       -4.240674   1.000000
    9       -3.550427   1.000000
   10       -1.840606   0.000000
   11       -0.377748   0.000000
   12        0.390496   0.000000
   13        1.677295   0.000000
 
  0.2903226E+00  0.3225806E-01  0.0000000E+00  0.1248699E-01
    1      -15.194319   1.000000
    2      -15.134453   1.000000
    3       -9.498492   1.000000
    4       -7.888276   1.000000
    5       -5.511862   1.000000
    6       -4.931652   1.000000
    7       -4.498932   1.000000
    8       -4.315876   1.000000
    9       -3.651733   1.000000
   10       -1.873447   0.000000
   11       -0.481184   0.000000
   12        0.355336   0.000000
   13        1.690302   0.000000
 
  0.3225806E+00  0.3225806E-01  0.0000000E+00  0.1248699E-01
    1      -15.118026   1.000000
    2      -15.066350   1.000000
    3       -9.546172   1.000000
    4       -8.049765   1.000000
    5       -5.567366   1.000000
    6       -4.971604   1.000000
    7       -4.576274   1.000000
    8       -4.382431   1.000000
    9       -3.761584   1.000000
   10       -1.924640   0.000000
   11       -0.554274   0.000000
   12        0.300605   0.000000
   13        1.696270   0.000000
 
  0.3548387E+00  0.3225806E-01  0.0000000E+00  0.1248699E-01
    1      -15.047485   1.000000
    2      -15.004651   1.000000
    3       -9.598173   1.000000
    4       -8.196517   1.000000
    5       -5.581125   1.000000
    6       -5.013804   1.000000
    7       -4.641173   1.000000
    8       -4.438122   1.000000
    9       -3.868976   1.000000
   10       -1.984652   0.000000
   11       -0.598276   0.000000
   12        0.237793   0.000000
   13        1.696353   0.000000
 
  0.3870968E+00  0.3225806E-01  0.0000000E+00  0.1248699E-01
    1      -14.986447   1.000000
    2      -14.952874   1.000000
    3       -9.648409   1.000000
    4       -8.320173   1.000000
    5       -5.558128   1.000000
    6       -5.066649   1.000000
    7       -4.692554   1.000000
    8       -4.481779   1.000000
    9       -3.962074   1.000000
   10       -2.044187   0.000000
   11       -0.618502   0.000000
   12        0.175982   0.000000
   13        1.692495   0.000000
 
  0.4193548E+00  0.3225806E-01  0.0000000E+00  0.1248699E-01
    1      -14.938556   1.000000
    2      -14.914249   1.000000
    3       -9.690333   1.000000
    4       -8.413797   1.000000
    5       -5.506381   1.000000
    6       -5.133201   1.000000
    7       -4.730133   1.000000
    8       -4.513212   1.000000
    9       -4.031472   1.000000
   10       -2.094441   0.000000
   11       -0.622977   0.000000
   12        0.123337   0.000000
   13        1.687186   0.000000
 
  0.4516129E+00  0.3225806E-01  0.0000000E+00  0.1248699E-01
    1      -14.907177   1.000000
    2      -14.891153   1.000000
    3       -9.718140   1.000000
    4       -8.472154   1.000000
    5       -5.439172   1.000000
    6       -5.207197   1.000000
    7       -4.753345   1.000000
    8       -4.532388   1.000000
    9       -4.072894   1.000000
   10       -2.127970   0.000000
   11       -0.620634   0.000000
   12        0.087567   0.000000
   13        1.682901   0.000000
 
  0.4838710E+00  0.3225806E-01  0.0000000E+00  0.6243496E-02
    1      -14.895848   1.000000
    2      -14.883868   1.000000
    3       -9.727882   1.000000
    4       -8.491980   1.000000
    5       -5.395886   1.000000
    6       -5.252483   1.000000
    7       -4.761239   1.000000
    8       -4.538881   1.000000
    9       -4.086451   1.000000
   10       -2.139741   0.000000
   11       -0.618872   0.000000
   12        0.074823   0.000000
   13        1.681234   0.000000
 
  0.6451613E-01  0.6451613E-01  0.0000000E+00  0.6243496E-02
    1      -15.603748   1.000000
    2      -15.512355   1.000000
    3       -9.414341   1.000000
    4       -7.090347   1.000000
    5       -4.372372   1.000000
    6       -4.241343   1.000000
    7       -3.935987   1.000000
    8       -3.854046   1.000000
    9       -3.327967   1.000000
   10       -2.239545   0.000000
   11       -0.489519   0.000000
   12        0.829495   0.000000
   13        1.519147   0.000000
 
  0.9677419E-01  0.6451613E-01  0.0000000E+00  0.1248699E-01
    1      -15.560940   1.000000
    2      -15.472184   1.000000
    3       -9.409788   1.000000
    4       -7.157705   1.000000
    5       -4.584994   1.000000
    6       -4.402798   1.000000
    7       -4.011671   1.000000
    8       -3.929633   1.000000
    9       -3.330096   1.000000
   10       -2.087271   0.000000
   11       -0.269663   0.000000
   12        0.620208   0.000000
   13        1.512100   0.000000
 
  0.1290323E+00  0.6451613E-01  0.0000000E+00  0.1248699E-01
    1      -15.507644   1.000000
    2      -15.422336   1.000000
    3       -9.408116   1.000000
    4       -7.249061   1.000000
    5       -4.802597   1.000000
    6       -4.549587   1.000000
    7       -4.106729   1.000000
    8       -4.013866   1.000000
    9       -3.346095   1.000000
   10       -1.955819   0.000000
   11       -0.081775   0.000000
   12        0.448115   0.000000
   13        1.501688   0.000000
 
  0.1612903E+00  0.6451613E-01  0.0000000E+00  0.1248699E-01
    1      -15.445230   1.000000
    2      -15.364226   1.000000
    3       -9.412045   1.000000
    4       -7.364725   1.000000
    5       -5.009061   1.000000
    6       -4.673234   1.000000
    7       -4.212983   1.000000
    8       -4.103145   1.000000
    9       -3.378815   1.000000
   10       -1.858992   0.000000
   11       -0.036604   0.000000
   12        0.401130   0.000000
   13        1.498472   0.000000
 
  0.1935484E+00  0.6451613E-01  0.0000000E+00  0.1248699E-01
    1      -15.375470   1.000000
    2      -15.299643   1.000000
    3       -9.424259   1.000000
    4       -7.502191   1.000000
    5       -5.192470   1.000000
    6       -4.770688   1.000000
    7       -4.322935   1.000000
    8       -4.193786   1.000000
    9       -3.430729   1.000000
   10       -1.802944   0.000000
   11       -0.139567   0.000000
   12        0.458836   0.000000
   13        1.499962   0.000000
 
  0.2258065E+00  0.6451613E-01  0.0000000E+00  0.1248699E-01
    1      -15.300546   1.000000
    2      -15.230777   1.000000
    3       -9.446806   1.000000
    4       -7.655909   1.000000
    5       -5.343984   1.000000
    6       -4.844241   1.000000
    7       -4.430124   1.000000
    8       -4.281601   1.000000
    9       -3.502920   1.000000
   10       -1.786408   0.000000
   11       -0.268986   0.000000
   12        0.492672   0.000000
   13        1.511167   0.000000
 
  0.2580645E+00  0.6451613E-01  0.0000000E+00  0.1248699E-01
    1      -15.223077   1.000000
    2      -15.160246   1.000000
    3       -9.480398   1.000000
    4       -7.817967   1.000000
    5       -5.457666   1.000000
    6       -4.900756   1.000000
    7       -4.528770   1.000000
    8       -4.362229   1.000000
    9       -3.593821   1.000000
   10       -1.802623   0.000000
   11       -0.382357   0.000000
   12        0.479917   0.000000
   13        1.523465   0.000000
 
  0.2903226E+00  0.6451613E-01  0.0000000E+00  0.1248699E-01
    1      -15.146120   1.000000
    2      -15.091050   1.000000
    3       -9.523798   1.000000
    4       -7.979243   1.000000
    5       -5.530660   1.000000
    6       -4.950061   1.000000
    7       -4.613886   1.000000
    8       -4.431523   1.000000
    9       -3.698402   1.000000
   10       -1.842402   0.000000
   11       -0.469668   0.000000
   12        0.436642   0.000000
   13        1.533553   0.000000
 
  0.3225806E+00  0.6451613E-01  0.0000000E+00  0.1248699E-01
    1      -15.073090   1.000000
    2      -15.026482   1.000000
    3       -9.573592   1.000000
    4       -8.130504   1.000000
    5       -5.563335   1.000000
    6       -5.001863   1.000000
    7       -4.682507   1.000000
    8       -4.486369   1.000000
    9       -3.808174   1.000000
   10       -1.896208   0.000000
   11       -0.529298   0.000000
   12        0.378947   0.000000
   13        1.538058   0.000000
 
  0.3548387E+00  0.6451613E-01  0.0000000E+00  0.1248699E-01
    1      -15.007638   1.000000
    2      -14.970010   1.000000
    3       -9.624514   1.000000
    4       -8.263152   1.000000
    5       -5.559161   1.000000
    6       -5.061665   1.000000
    7       -4.735123   1.000000
    8       -4.526256   1.000000
    9       -3.912112   1.000000
   10       -1.954661   0.000000
   11       -0.564004   0.000000
   12        0.318342   0.000000
   13        1.536106   0.000000
 
  0.3870968E+00  0.6451613E-01  0.0000000E+00  0.1248699E-01
    1      -14.953436   1.000000
    2      -14.925011   1.000000
    3       -9.670337   1.000000
    4       -8.369738   1.000000
    5       -5.524412   1.000000
    6       -5.129653   1.000000
    7       -4.774172   1.000000
    8       -4.553935   1.000000
    9       -3.998671   1.000000
   10       -2.008672   0.000000
   11       -0.579706   0.000000
   12        0.263543   0.000000
   13        1.529625   0.000000
 
  0.4193548E+00  0.6451613E-01  0.0000000E+00  0.1248699E-01
    1      -14.913938   1.000000
    2      -14.894337   1.000000
    3       -9.704964   1.000000
    4       -8.444303   1.000000
    5       -5.468346   1.000000
    6       -5.202556   1.000000
    7       -4.800853   1.000000
    8       -4.572716   1.000000
    9       -4.058945   1.000000
   10       -2.050044   0.000000
   11       -0.583938   0.000000
   12        0.221851   0.000000
   13        1.522241   0.000000
 
  0.4516129E+00  0.6451613E-01  0.0000000E+00  0.1248699E-01
    1      -14.892402   1.000000
    2      -14.879481   1.000000
    3       -9.723601   1.000000
    4       -8.482669   1.000000
    5       -5.408784   1.000000
    6       -5.268558   1.000000
    7       -4.814618   1.000000
    8       -4.582934   1.000000
    9       -4.089137   1.000000
   10       -2.072461   0.000000
   11       -0.583832   0.000000
   12        0.199225   0.000000
   13        1.517505   0.000000
 
  0.9677419E-01  0.9677419E-01  0.0000000E+00  0.6243496E-02
    1      -15.513443   1.000000
    2      -15.427745   1.000000
    3       -9.407959   1.000000
    4       -7.238081   1.000000
    5       -4.771529   1.000000
    6       -4.531928   1.000000
    7       -4.096326   1.000000
    8       -4.032652   1.000000
    9       -3.341764   1.000000
   10       -1.958052   0.000000
   11       -0.078263   0.000000
   12        0.481210   0.000000
   13        1.454256   0.000000
 
  0.1290323E+00  0.9677419E-01  0.0000000E+00  0.1248699E-01
    1      -15.456261   1.000000
    2      -15.374458   1.000000
    3       -9.410472   1.000000
    4       -7.341562   1.000000
    5       -4.957466   1.000000
    6       -4.642904   1.000000
    7       -4.204591   1.000000
    8       -4.142710   1.000000
    9       -3.366792   1.000000
   10       -1.848977   0.000000
   11        0.020903   0.000000
   12        0.440078   0.000000
   13        1.401179   0.000000
 
  0.1612903E+00  0.9677419E-01  0.0000000E+00  0.1248699E-01
    1      -15.390968   1.000000
    2      -15.313908   1.000000
    3       -9.419872   1.000000
    4       -7.466582   1.000000
    5       -5.129785   1.000000
    6       -4.732236   1.000000
    7       -4.329967   1.000000
    8       -4.249421   1.000000
    9       -3.408215   1.000000
   10       -1.772191   0.000000
   11       -0.037093   0.000000
   12        0.531614   0.000000
   13        1.349775   0.000000
 
  0.1935484E+00  0.9677419E-01  0.0000000E+00  0.1248699E-01
    1      -15.319511   1.000000
    2      -15.248063   1.000000
    3       -9.438345   1.000000
    4       -7.608969   1.000000
    5       -5.278474   1.000000
    6       -4.801951   1.000000
    7       -4.458967   1.000000
    8       -4.349849   1.000000
    9       -3.468178   1.000000
   10       -1.732475   0.000000
   11       -0.148955   0.000000
   12        0.621736   0.000000
   13        1.326864   0.000000
 
  0.2258065E+00  0.9677419E-01  0.0000000E+00  0.1248699E-01
    1      -15.244273   1.000000
    2      -15.179298   1.000000
    3       -9.467099   1.000000
    4       -7.762259   1.000000
    5       -5.396423   1.000000
    6       -4.859821   1.000000
    7       -4.579227   1.000000
    8       -4.439729   1.000000
    9       -3.547075   1.000000
   10       -1.727621   0.000000
   11       -0.259311   0.000000
   12        0.650322   0.000000
   13        1.318917   0.000000
 
  0.2580645E+00  0.9677419E-01  0.0000000E+00  0.1248699E-01
    1      -15.168057   1.000000
    2      -15.110384   1.000000
    3       -9.505767   1.000000
    4       -7.918477   1.000000
    5       -5.479516   1.000000
    6       -4.918732   1.000000
    7       -4.679942   1.000000
    8       -4.512795   1.000000
    9       -3.642637   1.000000
   10       -1.750764   0.000000
   11       -0.353210   0.000000
   12        0.627811   0.000000
   13        1.323130   0.000000
 
  0.2903226E+00  0.9677419E-01  0.0000000E+00  0.1248699E-01
    1      -15.094058   1.000000
    2      -15.044411   1.000000
    3       -9.552005   1.000000
    4       -8.069080   1.000000
    5       -5.526796   1.000000
    6       -4.989423   1.000000
    7       -4.755239   1.000000
    8       -4.563750   1.000000
    9       -3.749396   1.000000
   10       -1.793110   0.000000
   11       -0.425407   0.000000
   12        0.578392   0.000000
   13        1.330300   0.000000
 
  0.3225806E+00  0.9677419E-01  0.0000000E+00  0.1248699E-01
    1      -15.025759   1.000000
    2      -14.984710   1.000000
    3       -9.601585   1.000000
    4       -8.205723   1.000000
    5       -5.540460   1.000000
    6       -5.069791   1.000000
    7       -4.809183   1.000000
    8       -4.593247   1.000000
    9       -3.858681   1.000000
   10       -1.845461   0.000000
   11       -0.475145   0.000000
   12        0.520259   0.000000
   13        1.332968   0.000000
 
  0.3548387E+00  0.9677419E-01  0.0000000E+00  0.1248699E-01
    1      -14.966765   1.000000
    2      -14.934655   1.000000
    3       -9.648965   1.000000
    4       -8.320822   1.000000
    5       -5.525504   1.000000
    6       -5.150912   1.000000
    7       -4.847388   1.000000
    8       -4.609445   1.000000
    9       -3.959267   1.000000
   10       -1.898700   0.000000
   11       -0.505104   0.000000
   12        0.464928   0.000000
   13        1.328862   0.000000
 
  0.3870968E+00  0.9677419E-01  0.0000000E+00  0.1248699E-01
    1      -14.920563   1.000000
    2      -14.897336   1.000000
    3       -9.688239   1.000000
    4       -8.407987   1.000000
    5       -5.489087   1.000000
    6       -5.227094   1.000000
    7       -4.871547   1.000000
    8       -4.621661   1.000000
    9       -4.039243   1.000000
   10       -1.944237   0.000000
   11       -0.520316   0.000000
   12        0.419951   0.000000
   13        1.320660   0.000000
 
  0.4193548E+00  0.9677419E-01  0.0000000E+00  0.1248699E-01
    1      -14.890348   1.000000
    2      -14.875005   1.000000
    3       -9.714190   1.000000
    4       -8.462336   1.000000
    5       -5.440314   1.000000
    6       -5.295324   1.000000
    7       -4.883375   1.000000
    8       -4.632731   1.000000
    9       -4.089524   1.000000
   10       -1.974842   0.000000
   11       -0.526442   0.000000
   12        0.390650   0.000000
   13        1.313098   0.000000
 
  0.4516129E+00  0.9677419E-01  0.0000000E+00  0.6243496E-02
    1      -14.879460   1.000000
    2      -14.867942   1.000000
    3       -9.723264   1.000000
    4       -8.480802   1.000000
    5       -5.404141   1.000000
    6       -5.337073   1.000000
    7       -4.886554   1.000000
    8       -4.637750   1.000000
    9       -4.106421   1.000000
   10       -1.985622   0.000000
   11       -0.527922   0.000000
   12        0.380476   0.000000
   13        1.310089   0.000000
 
  0.1290323E+00  0.1290323E+00  0.0000000E+00  0.6243496E-02
    1      -15.396176   1.000000
    2      -15.318708   1.000000
    3       -9.418454   1.000000
    4       -7.454449   1.000000
    5       -5.104963   1.000000
    6       -4.717195   1.000000
    7       -4.320361   1.000000
    8       -4.288275   1.000000
    9       -3.400538   1.000000
   10       -1.759896   0.000000
   11        0.007202   0.000000
   12        0.564676   0.000000
   13        1.287190   0.000000
 
  0.1612903E+00  0.1290323E+00  0.0000000E+00  0.1248699E-01
    1      -15.329129   1.000000
    2      -15.256839   1.000000
    3       -9.434160   1.000000
    4       -7.584446   1.000000
    5       -5.236118   1.000000
    6       -4.773063   1.000000
    7       -4.462558   1.000000
    8       -4.419079   1.000000
    9       -3.450229   1.000000
   10       -1.699507   0.000000
   11       -0.062823   0.000000
   12        0.723247   0.000000
   13        1.199806   0.000000
 
  0.1935484E+00  0.1290323E+00  0.0000000E+00  0.1248699E-01
    1      -15.257252   1.000000
    2      -15.190984   1.000000
    3       -9.458992   1.000000
    4       -7.726363   1.000000
    5       -5.344175   1.000000
    6       -4.818736   1.000000
    7       -4.615486   1.000000
    8       -4.526025   1.000000
    9       -3.517584   1.000000
   10       -1.671684   0.000000
   11       -0.145293   0.000000
   12        0.826790   0.000000
   13        1.142859   0.000000
 
  0.2258065E+00  0.1290323E+00  0.0000000E+00  0.1248699E-01
    1      -15.183095   1.000000
    2      -15.123662   1.000000
    3       -9.493149   1.000000
    4       -7.873573   1.000000
    5       -5.424985   1.000000
    6       -4.876157   1.000000
    7       -4.749119   1.000000
    8       -4.606083   1.000000
    9       -3.602433   1.000000
   10       -1.673824   0.000000
   11       -0.226865   0.000000
   12        0.845528   0.000000
   13        1.122778   0.000000
 
  0.2580645E+00  0.1290323E+00  0.0000000E+00  0.1248699E-01
    1      -15.109608   1.000000
    2      -15.057735   1.000000
    3       -9.535182   1.000000
    4       -8.018670   1.000000
    5       -5.477386   1.000000
    6       -4.972601   1.000000