 vasp.5.4.4.18Apr17-6-g9f103f2a35 (build Jul 14 2020 19:13:21) complex          
  
 executed on             LinuxIFC date 2022.02.23  14:21:43
 running on   12 total cores
 distrk:  each k-point on   12 cores,    1 groups
 distr:  one band on NCORES_PER_BAND=  12 cores,    1 groups


--------------------------------------------------------------------------------------------------------


 INCAR:
 POTCAR:    PAW_PBE Tl 08Apr2002                  
 POTCAR:    PAW_PBE Se 06Sep2000                  

 ----------------------------------------------------------------------------- 
|                                                                             |
|           W    W    AA    RRRRR   N    N  II  N    N   GGGG   !!!           |
|           W    W   A  A   R    R  NN   N  II  NN   N  G    G  !!!           |
|           W    W  A    A  R    R  N N  N  II  N N  N  G       !!!           |
|           W WW W  AAAAAA  RRRRR   N  N N  II  N  N N  G  GGG   !            |
|           WW  WW  A    A  R   R   N   NN  II  N   NN  G    G                |
|           W    W  A    A  R    R  N    N  II  N    N   GGGG   !!!           |
|                                                                             |
|      For optimal performance we recommend to set                            |
|        NCORE= 4 - approx SQRT( number of cores)                             |
|      NCORE specifies how many cores store one orbital (NPAR=cpu/NCORE).     |
|      This setting can  greatly improve the performance of VASP for DFT.     |
|      The default,   NCORE=1            might be grossly inefficient         |
|      on modern multi-core architectures or massively parallel machines.     |
|      Do your own testing !!!!                                               |
|      Unfortunately you need to use the default for GW and RPA calculations. |
|      (for HF NCORE is supported but not extensively tested yet)             |
|                                                                             |
 ----------------------------------------------------------------------------- 

 POTCAR:    PAW_PBE Tl 08Apr2002                  
   VRHFIN =Tl:                                                                  
   LEXCH  = PE                                                                  
   EATOM  =    57.5366 eV,    4.2288 Ry                                         
                                                                                
   TITEL  = PAW_PBE Tl 08Apr2002                                                
   LULTRA =        F    use ultrasoft PP ?                                      
   IUNSCR =        1    unscreen: 0-lin 1-nonlin 2-no                           
   RPACOR =    2.400    partial core radius                                     
   POMASS =  204.380; ZVAL   =    3.000    mass and valenz                      
   RCORE  =    3.200    outmost cutoff radius                                   
   RWIGS  =    3.260; RWIGS  =    1.725    wigner-seitz radius (au A)           
   ENMAX  =   90.140; ENMIN  =   67.605 eV                                      
   ICORE  =        3    local potential                                         
   LCOR   =        T    correct aug charges                                     
   LPAW   =        T    paw PP                                                  
   EAUG   =  237.028                                                            
   DEXC   =    0.000                                                            
   RMAX   =    3.271    core radius for proj-oper                               
   RAUG   =    1.300    factor for augmentation sphere                          
   RDEP   =    3.398    radius for radial grids                                 
   RDEPT  =    2.711    core radius for aug-charge                              
                                                                                
   Atomic configuration                                                         
   17 entries                                                                   
     n  l   j            E        occ.                                          
     1  0  0.50    -85594.3227   2.0000                                         
     2  0  0.50    -15237.2712   2.0000                                         
     2  1  1.50    -13100.9674   6.0000                                         
     3  0  0.50     -3637.0867   2.0000                                         
     3  1  1.50     -3022.5361   6.0000                                         
     3  2  2.50     -2387.1749  10.0000                                         
     4  0  0.50      -811.8533   2.0000                                         
     4  1  1.50      -610.4868   6.0000                                         
     4  2  2.50      -374.8241  10.0000                                         
     4  3  3.50      -114.0437  14.0000                                         
     5  0  0.50      -130.9408   2.0000                                         
     5  1  1.50       -76.0548   6.0000                                         
     5  2  2.50       -15.4864  10.0000                                         
     6  0  0.50        -9.5437   2.0000                                         
     6  1  1.50        -2.3700   1.0000                                         
     6  2  2.50        -1.3606   0.0000                                         
     5  3  2.50        -2.7212   0.0000                                         
   Description                                                                  
     l       E           TYP  RCUT    TYP  RCUT                                 
     0     -9.5436748     23  3.200                                             
     0     13.6058260     23  3.200                                             
     1     -2.3700273     23  3.200                                             
     1     13.6058260     23  3.200                                             
     2     -2.7211652     23  3.200                                             
     3     -1.3605826      7  3.200                                             
  local pseudopotential read in
  partial core-charges read in
  partial kinetic energy density read in
  atomic valenz-charges read in
  non local Contribution for L=           0  read in
    real space projection operators read in
  non local Contribution for L=           0  read in
    real space projection operators read in
  non local Contribution for L=           1  read in
    real space projection operators read in
  non local Contribution for L=           1  read in
    real space projection operators read in
  non local Contribution for L=           2  read in
    real space projection operators read in
    PAW grid and wavefunctions read in
 
   number of l-projection  operators is LMAX  =           5
   number of lm-projection operators is LMMAX =          13
 
 POTCAR:    PAW_PBE Se 06Sep2000                  
   VRHFIN =Se: s2p4                                                             
   LEXCH  = PE                                                                  
   EATOM  =   257.1286 eV,   18.8984 Ry                                         
                                                                                
   TITEL  = PAW_PBE Se 06Sep2000                                                
   LULTRA =        F    use ultrasoft PP ?                                      
   IUNSCR =        1    unscreen: 0-lin 1-nonlin 2-no                           
   RPACOR =    1.900    partial core radius                                     
   POMASS =   78.960; ZVAL   =    6.000    mass and valenz                      
   RCORE  =    2.100    outmost cutoff radius                                   
   RWIGS  =    2.200; RWIGS  =    1.164    wigner-seitz radius (au A)           
   ENMAX  =  211.555; ENMIN  =  158.666 eV                                      
   ICORE  =        3    local potential                                         
   LCOR   =        T    correct aug charges                                     
   LPAW   =        T    paw PP                                                  
   EAUG   =  446.842                                                            
   DEXC   =    0.000                                                            
   RMAX   =    2.147    core radius for proj-oper                               
   RAUG   =    1.300    factor for augmentation sphere                          
   RDEP   =    2.177    radius for radial grids                                 
   RDEPT  =    1.928    core radius for aug-charge                              
                                                                                
   Atomic configuration                                                         
   10 entries                                                                   
     n  l   j            E        occ.                                          
     1  0  0.50    -12503.4787   2.0000                                         
     2  0  0.50     -1606.9547   2.0000                                         
     2  1  1.50     -1413.3140   6.0000                                         
     3  0  0.50      -213.4885   2.0000                                         
     3  1  1.50      -152.9538   6.0000                                         
     3  2  2.50       -53.1221  10.0000                                         
     4  0  0.50       -17.2865   2.0000                                         
     4  1  0.50        -6.5110   4.0000                                         
     4  2  2.50        -6.8029   0.0000                                         
     4  3  2.50        -6.8029   0.0000                                         
   Description                                                                  
     l       E           TYP  RCUT    TYP  RCUT                                 
     0    -17.2865377     23  2.100                                             
     0    -15.3094411     23  2.100                                             
     1     -6.5110275     23  2.100                                             
     1     -0.0695192     23  2.100                                             
     2     -6.8029130     23  2.100                                             
     3     -1.3605826      7  2.100                                             
  local pseudopotential read in
  partial core-charges read in
  partial kinetic energy density read in
  atomic valenz-charges read in
  non local Contribution for L=           0  read in
    real space projection operators read in
  non local Contribution for L=           0  read in
    real space projection operators read in
  non local Contribution for L=           1  read in
    real space projection operators read in
  non local Contribution for L=           1  read in
    real space projection operators read in
  non local Contribution for L=           2  read in
    real space projection operators read in
    PAW grid and wavefunctions read in
 
   number of l-projection  operators is LMAX  =           5
   number of lm-projection operators is LMMAX =          13
 
  PAW_PBE Tl 08Apr2002                  :
 energy of atom  1       EATOM=  -57.5366
 kinetic energy error for atom=    0.0001 (will be added to EATOM!!)
  PAW_PBE Se 06Sep2000                  :
 energy of atom  2       EATOM= -257.1286
 kinetic energy error for atom=    0.0040 (will be added to EATOM!!)
 
 
 POSCAR: Tl2Se2                                  
  positions in direct lattice
  No initial velocities read in
 exchange correlation table for  LEXCH =        8
   RHO(1)=    0.500       N(1)  =     2000
   RHO(2)=  100.500       N(2)  =     4000

 VTST: version 3.2, (02/03/18)

 CHAIN: initializing optimizer
 
 OPT: Using VASP Dynamics algorithm
 CHAIN: Read ICHAIN            0
 
 POSCAR: Tl2Se2                                  
  positions in direct lattice
  No initial velocities read in
 


--------------------------------------------------------------------------------------------------------


 ion  position               nearest neighbor table
   1  0.000  0.000  0.442-   3 2.77   3 2.77   3 2.77   2 2.82
   2  0.000  0.000  0.558-   4 2.77   4 2.77   4 2.77   1 2.82
   3  0.667  0.333  0.388-   1 2.77   1 2.77   1 2.77
   4  0.333  0.667  0.612-   2 2.77   2 2.77   2 2.77
 
  LATTYP: Found a hexagonal cell.
 ALAT       =     4.2200053032
 C/A-ratio  =     5.7870380842
  
  Lattice vectors:
  
 A1 = (   4.2200040817,   0.0000000000,   0.0000000000)
 A2 = (  -2.1100003425,   3.6546311688,   0.0000000000)
 A3 = (   0.0000000000,   0.0000000000,  24.4213314056)


Analysis of symmetry for initial positions (statically):
=====================================================================
 Subroutine PRICEL returns:
 Original cell was already a primitive cell.
 

 Routine SETGRP: Setting up the symmetry group for a 
 hexagonal supercell.


 Subroutine GETGRP returns: Found 12 space group operations
 (whereof 12 operations were pure point group operations)
 out of a pool of 24 trial point group operations.


The static configuration has the point symmetry D_3d.


Analysis of symmetry for dynamics (positions and initial velocities):
=====================================================================
 Subroutine PRICEL returns:
 Original cell was already a primitive cell.
 

 Routine SETGRP: Setting up the symmetry group for a 
 hexagonal supercell.


 Subroutine GETGRP returns: Found 12 space group operations
 (whereof 12 operations were pure point group operations)
 out of a pool of 24 trial point group operations.


The dynamic configuration has the point symmetry D_3d.


 Subroutine INISYM returns: Found 12 space group operations
 (whereof 12 operations are pure point group operations),
 and found     1 'primitive' translations

 
 
 KPOINTS: KPT-Resolved Value to Generate K-Mesh: 0

Automatic generation of k-mesh.
Space group operators:
 irot       det(A)        alpha          n_x          n_y          n_z        tau_x        tau_y        tau_z
    1     1.000000     0.000001     1.000000     0.000000     0.000000     0.000000     0.000000     0.000000
    2    -1.000000     0.000001     1.000000     0.000000     0.000000     0.000000     0.000000     0.000000
    3     1.000000   120.000000     0.000000     0.000000    -1.000000     0.000000     0.000000     0.000000
    4    -1.000000   120.000000     0.000000     0.000000    -1.000000     0.000000     0.000000     0.000000
    5     1.000000   120.000000     0.000000     0.000000     1.000000     0.000000     0.000000     0.000000
    6    -1.000000   120.000000     0.000000     0.000000     1.000000     0.000000     0.000000     0.000000
    7     1.000000   179.999999     1.000000    -0.000000     0.000000     0.000000     0.000000     0.000000
    8    -1.000000   179.999999     1.000000    -0.000000     0.000000     0.000000     0.000000     0.000000
    9     1.000000   180.000000     0.500000    -0.866025     0.000000     0.000000     0.000000     0.000000
   10    -1.000000   180.000000     0.500000    -0.866025     0.000000     0.000000     0.000000     0.000000
   11     1.000000   180.000000    -0.500000    -0.866025     0.000000     0.000000     0.000000     0.000000
   12    -1.000000   180.000000    -0.500000    -0.866025     0.000000     0.000000     0.000000     0.000000
 
 Subroutine IBZKPT returns following result:
 ===========================================
 
 Found     96 irreducible k-points:
 
 Following reciprocal coordinates:
            Coordinates               Weight
  0.000000  0.000000  0.000000      1.000000
  0.032258  0.000000  0.000000      6.000000
  0.064516  0.000000  0.000000      6.000000
  0.096774  0.000000  0.000000      6.000000
  0.129032  0.000000  0.000000      6.000000
  0.161290  0.000000  0.000000      6.000000
  0.193548  0.000000  0.000000      6.000000
  0.225806 -0.000000  0.000000      6.000000
  0.258065  0.000000  0.000000      6.000000
  0.290323  0.000000  0.000000      6.000000
  0.322581  0.000000  0.000000      6.000000
  0.354839  0.000000  0.000000      6.000000
  0.387097  0.000000  0.000000      6.000000
  0.419355  0.000000  0.000000      6.000000
  0.451613 -0.000000  0.000000      6.000000
  0.483871 -0.000000  0.000000      6.000000
  0.032258  0.032258  0.000000      6.000000
  0.064516  0.032258  0.000000     12.000000
  0.096774  0.032258  0.000000     12.000000
  0.129032  0.032258  0.000000     12.000000
  0.161290  0.032258  0.000000     12.000000
  0.193548  0.032258  0.000000     12.000000
  0.225806  0.032258  0.000000     12.000000
  0.258065  0.032258  0.000000     12.000000
  0.290323  0.032258  0.000000     12.000000
  0.322581  0.032258  0.000000     12.000000
  0.354839  0.032258  0.000000     12.000000
  0.387097  0.032258  0.000000     12.000000
  0.419355  0.032258  0.000000     12.000000
  0.451613  0.032258  0.000000     12.000000
  0.483871  0.032258  0.000000      6.000000
  0.064516  0.064516  0.000000      6.000000
  0.096774  0.064516  0.000000     12.000000
  0.129032  0.064516  0.000000     12.000000
  0.161290  0.064516  0.000000     12.000000
  0.193548  0.064516  0.000000     12.000000
  0.225806  0.064516  0.000000     12.000000
  0.258065  0.064516  0.000000     12.000000
  0.290323  0.064516  0.000000     12.000000
  0.322581  0.064516  0.000000     12.000000
  0.354839  0.064516  0.000000     12.000000
  0.387097  0.064516  0.000000     12.000000
  0.419355  0.064516  0.000000     12.000000
  0.451613  0.064516  0.000000     12.000000
  0.096774  0.096774  0.000000      6.000000
  0.129032  0.096774  0.000000     12.000000
  0.161290  0.096774  0.000000     12.000000
  0.193548  0.096774  0.000000     12.000000
  0.225806  0.096774  0.000000     12.000000
  0.258065  0.096774  0.000000     12.000000
  0.290323  0.096774  0.000000     12.000000
  0.322581  0.096774  0.000000     12.000000
  0.354839  0.096774  0.000000     12.000000
  0.387097  0.096774  0.000000     12.000000
  0.419355  0.096774  0.000000     12.000000
  0.451613  0.096774  0.000000      6.000000
  0.129032  0.129032  0.000000      6.000000
  0.161290  0.129032  0.000000     12.000000
  0.193548  0.129032  0.000000     12.000000
  0.225806  0.129032  0.000000     12.000000
  0.258065  0.129032  0.000000     12.000000
  0.290323  0.129032  0.000000     12.000000
  0.322581  0.129032  0.000000     12.000000
  0.354839  0.129032  0.000000     12.000000
  0.387097  0.129032  0.000000     12.000000
  0.419355  0.129032  0.000000     12.000000
  0.161290  0.161290  0.000000      6.000000
  0.193548  0.161290  0.000000     12.000000
  0.225806  0.161290  0.000000     12.000000
  0.258065  0.161290  0.000000     12.000000
  0.290323  0.161290  0.000000     12.000000
  0.322581  0.161290  0.000000     12.000000
  0.354839  0.161290  0.000000     12.000000
  0.387097  0.161290  0.000000     12.000000
  0.419355  0.161290  0.000000      6.000000
  0.193548  0.193548  0.000000      6.000000
  0.225806  0.193548  0.000000     12.000000
  0.258065  0.193548  0.000000     12.000000
  0.290323  0.193548  0.000000     12.000000
  0.322581  0.193548  0.000000     12.000000
  0.354839  0.193548  0.000000     12.000000
  0.387097  0.193548  0.000000     12.000000
  0.225806  0.225806  0.000000      6.000000
  0.258065  0.225806  0.000000     12.000000
  0.290323  0.225806  0.000000     12.000000
  0.322581  0.225806  0.000000     12.000000
  0.354839  0.225806  0.000000     12.000000
  0.387097  0.225806  0.000000      6.000000
  0.258065  0.258065  0.000000      6.000000
  0.290323  0.258065  0.000000     12.000000
  0.322581  0.258065  0.000000     12.000000
  0.354839  0.258065  0.000000     12.000000
  0.290323  0.290323  0.000000      6.000000
  0.322581  0.290323  0.000000     12.000000
  0.354839  0.290323  0.000000      6.000000
  0.322581  0.322581  0.000000      6.000000
 
 Following cartesian coordinates:
            Coordinates               Weight
  0.000000  0.000000  0.000000      1.000000
  0.007644  0.004413  0.000000      6.000000
  0.015288  0.008827  0.000000      6.000000
  0.022932  0.013240  0.000000      6.000000
  0.030576  0.017653  0.000000      6.000000
  0.038220  0.022067  0.000000      6.000000
  0.045865  0.026480  0.000000      6.000000
  0.053509  0.030893  0.000000      6.000000
  0.061153  0.035306  0.000000      6.000000
  0.068797  0.039720  0.000000      6.000000
  0.076441  0.044133  0.000000      6.000000
  0.084085  0.048546  0.000000      6.000000
  0.091729  0.052960  0.000000      6.000000
  0.099373  0.057373  0.000000      6.000000
  0.107017  0.061786  0.000000      6.000000
  0.114661  0.066200  0.000000      6.000000
  0.007644  0.013240  0.000000      6.000000
  0.015288  0.017653  0.000000     12.000000
  0.022932  0.022067  0.000000     12.000000
  0.030576  0.026480  0.000000     12.000000
  0.038220  0.030893  0.000000     12.000000
  0.045865  0.035306  0.000000     12.000000
  0.053509  0.039720  0.000000     12.000000
  0.061153  0.044133  0.000000     12.000000
  0.068797  0.048546  0.000000     12.000000
  0.076441  0.052960  0.000000     12.000000
  0.084085  0.057373  0.000000     12.000000
  0.091729  0.061786  0.000000     12.000000
  0.099373  0.066200  0.000000     12.000000
  0.107017  0.070613  0.000000     12.000000
  0.114661  0.075026  0.000000      6.000000
  0.015288  0.026480  0.000000      6.000000
  0.022932  0.030893  0.000000     12.000000
  0.030576  0.035306  0.000000     12.000000
  0.038220  0.039720  0.000000     12.000000
  0.045865  0.044133  0.000000     12.000000
  0.053509  0.048546  0.000000     12.000000
  0.061153  0.052960  0.000000     12.000000
  0.068797  0.057373  0.000000     12.000000
  0.076441  0.061786  0.000000     12.000000
  0.084085  0.066200  0.000000     12.000000
  0.091729  0.070613  0.000000     12.000000
  0.099373  0.075026  0.000000     12.000000
  0.107017  0.079440  0.000000     12.000000
  0.022932  0.039720  0.000000      6.000000
  0.030576  0.044133  0.000000     12.000000
  0.038220  0.048546  0.000000     12.000000
  0.045865  0.052960  0.000000     12.000000
  0.053509  0.057373  0.000000     12.000000
  0.061153  0.061786  0.000000     12.000000
  0.068797  0.066200  0.000000     12.000000
  0.076441  0.070613  0.000000     12.000000
  0.084085  0.075026  0.000000     12.000000
  0.091729  0.079440  0.000000     12.000000
  0.099373  0.083853  0.000000     12.000000
  0.107017  0.088266  0.000000      6.000000
  0.030576  0.052960  0.000000      6.000000
  0.038220  0.057373  0.000000     12.000000
  0.045865  0.061786  0.000000     12.000000
  0.053509  0.066200  0.000000     12.000000
  0.061153  0.070613  0.000000     12.000000
  0.068797  0.075026  0.000000     12.000000
  0.076441  0.079440  0.000000     12.000000
  0.084085  0.083853  0.000000     12.000000
  0.091729  0.088266  0.000000     12.000000
  0.099373  0.092680  0.000000     12.000000
  0.038220  0.066200  0.000000      6.000000
  0.045865  0.070613  0.000000     12.000000
  0.053509  0.075026  0.000000     12.000000
  0.061153  0.079440  0.000000     12.000000
  0.068797  0.083853  0.000000     12.000000
  0.076441  0.088266  0.000000     12.000000
  0.084085  0.092680  0.000000     12.000000
  0.091729  0.097093  0.000000     12.000000
  0.099373  0.101506  0.000000      6.000000
  0.045865  0.079440  0.000000      6.000000
  0.053509  0.083853  0.000000     12.000000
  0.061153  0.088266  0.000000     12.000000
  0.068797  0.092680  0.000000     12.000000
  0.076441  0.097093  0.000000     12.000000
  0.084085  0.101506  0.000000     12.000000
  0.091729  0.105919  0.000000     12.000000
  0.053509  0.092680  0.000000      6.000000
  0.061153  0.097093  0.000000     12.000000
  0.068797  0.101506  0.000000     12.000000
  0.076441  0.105919  0.000000     12.000000
  0.084085  0.110333  0.000000     12.000000
  0.091729  0.114746  0.000000      6.000000
  0.061153  0.105919  0.000000      6.000000
  0.068797  0.110333  0.000000     12.000000
  0.076441  0.114746  0.000000     12.000000
  0.084085  0.119159  0.000000     12.000000
  0.068797  0.119159  0.000000      6.000000
  0.076441  0.123573  0.000000     12.000000
  0.084085  0.127986  0.000000      6.000000
  0.076441  0.132399  0.000000      6.000000
 
 TETIRR: Found    496 inequivalent tetrahedra from     5766


--------------------------------------------------------------------------------------------------------




 Dimension of arrays:
   k-points           NKPTS =     96   k-points in BZ     NKDIM =     96   number of bands    NBANDS=     13
   number of dos      NEDOS =   1000   number of ions     NIONS =      4
   non local maximal  LDIM  =      5   non local SUM 2l+1 LMDIM =     13
   total plane-waves  NPLWV =  80640
   max r-space proj   IRMAX =      1   max aug-charges    IRDMAX=  24365
   dimension x,y,z NGX =    24 NGY =   24 NGZ =  140
   dimension x,y,z NGXF=    48 NGYF=   48 NGZF=  280
   support grid    NGXF=    48 NGYF=   48 NGZF=  280
   ions per type =               2   2
   NGX,Y,Z   is equivalent  to a cutoff of   9.45,  9.45,  9.53 a.u.
   NGXF,Y,Z  is equivalent  to a cutoff of  18.91, 18.91, 19.06 a.u.

 SYSTEM =  Tl2Se2_P-3m1                            
 POSCAR =  Tl2Se2                                  

 Startparameter for this run:
   NWRITE =      2    write-flag & timer
   PREC   = accura    normal or accurate (medium, high low for compatibility)
   ISTART =      0    job   : 0-new  1-cont  2-samecut
   ICHARG =     11    charge: 1-file 2-atom 10-const
   ISPIN  =      1    spin polarized calculation?
   LNONCOLLINEAR =      F non collinear calculations
   LSORBIT =      F    spin-orbit coupling
   INIWAV =      1    electr: 0-lowe 1-rand  2-diag
   LASPH  =      F    aspherical Exc in radial PAW
   METAGGA=      F    non-selfconsistent MetaGGA calc.

 Electronic Relaxation 1
   ENCUT  =  300.0 eV  22.05 Ry    4.70 a.u.   5.96  5.96 34.49*2*pi/ulx,y,z
   ENINI  =  300.0     initial cutoff
   ENAUG  =  446.8 eV  augmentation charge cutoff
   NELM   =     60;   NELMIN=  2; NELMDL= -5     # of ELM steps 
   EDIFF  = 0.1E-03   stopping-criterion for ELM
   LREAL  =      F    real-space projection
   NLSPLINE    = F    spline interpolate recip. space projectors
   LCOMPAT=      F    compatible to vasp.4.4
   GGA_COMPAT  = T    GGA compatible to vasp.4.4-vasp.4.6
   LMAXPAW     = -100 max onsite density
   LMAXMIX     =    2 max onsite mixed and CHGCAR
   VOSKOWN=      0    Vosko Wilk Nusair interpolation
   ROPT   =    0.00000   0.00000
 Ionic relaxation
   EDIFFG = 0.1E-02   stopping-criterion for IOM
   NSW    =      0    number of steps for IOM
   NBLOCK =      1;   KBLOCK =      1    inner block; outer block 
   IBRION =     -1    ionic relax: 0-MD 1-quasi-New 2-CG
   NFREE  =      0    steps in history (QN), initial steepest desc. (CG)
   ISIF   =      2    stress and relaxation
   IWAVPR =     10    prediction:  0-non 1-charg 2-wave 3-comb
   ISYM   =      2    0-nonsym 1-usesym 2-fastsym
   LCORR  =      T    Harris-Foulkes like correction to forces

   POTIM  = 0.5000    time-step for ionic-motion
   TEIN   =    0.0    initial temperature
   TEBEG  =    0.0;   TEEND  =   0.0 temperature during run
   SMASS  =  -3.00    Nose mass-parameter (am)
   estimated Nose-frequenzy (Omega)   =  0.10E-29 period in steps =****** mass=  -0.407E-27a.u.
   SCALEE = 1.0000    scale energy and forces
   NPACO  =    256;   APACO  = 16.0  distance and # of slots for P.C.
   PSTRESS=    0.0 pullay stress

  Mass of Ions in am
   POMASS = 204.38 78.96
  Ionic Valenz
   ZVAL   =   3.00  6.00
  Atomic Wigner-Seitz radii
   RWIGS  =  -1.00 -1.00
  virtual crystal weights 
   VCA    =   1.00  1.00
   NELECT =      18.0000    total number of electrons
   NUPDOWN=      -1.0000    fix difference up-down

 DOS related values:
   EMIN   =  10.00;   EMAX   =-10.00  energy-range for DOS
   EFERMI =   0.00
   ISMEAR =    -5;   SIGMA  =   0.20  broadening in eV -4-tet -1-fermi 0-gaus

 Electronic relaxation 2 (details)
   IALGO  =     38    algorithm
   LDIAG  =      T    sub-space diagonalisation (order eigenvalues)
   LSUBROT=      F    optimize rotation matrix (better conditioning)
   TURBO    =      0    0=normal 1=particle mesh
   IRESTART =      0    0=no restart 2=restart with 2 vectors
   NREBOOT  =      0    no. of reboots
   NMIN     =      0    reboot dimension
   EREF     =   0.00    reference energy to select bands
   IMIX   =      4    mixing-type and parameters
     AMIX     =   0.40;   BMIX     =  1.00
     AMIX_MAG =   1.60;   BMIX_MAG =  1.00
     AMIN     =   0.10
     WC   =   100.;   INIMIX=   1;  MIXPRE=   1;  MAXMIX= -45

 Intra band minimization:
   WEIMIN = 0.0000     energy-eigenvalue tresh-hold
   EBREAK =  0.19E-05  absolut break condition
   DEPER  =   0.30     relativ break condition  

   TIME   =   0.40     timestep for ELM

  volume/ion in A,a.u.               =      94.16       635.42
  Fermi-wavevector in a.u.,A,eV,Ry     =   0.594097  1.122680  4.802187  0.352951
  Thomas-Fermi vector in A             =   1.643548
 
 Write flags
   LWAVE        =      T    write WAVECAR
   LDOWNSAMPLE  =      F    k-point downsampling of WAVECAR
   LCHARG       =      F    write CHGCAR
   LVTOT        =      F    write LOCPOT, total local potential
   LVHAR        =      T    write LOCPOT, Hartree potential only
   LELF         =      F    write electronic localiz. function (ELF)
   LORBIT       =     11    0 simple, 1 ext, 2 COOP (PROOUT), +10 PAW based schemes


 Dipole corrections
   LMONO  =      F    monopole corrections only (constant potential shift)
   LDIPOL =      F    correct potential (dipole corrections)
   IDIPOL =      0    1-x, 2-y, 3-z, 4-all directions 
   EPSILON=  1.0000000 bulk dielectric constant

 Exchange correlation treatment:
   GGA     =    --    GGA type
   LEXCH   =     8    internal setting for exchange type
   VOSKOWN=      0    Vosko Wilk Nusair interpolation
   LHFCALC =     F    Hartree Fock is set to
   LHFONE  =     F    Hartree Fock one center treatment
   AEXX    =    0.0000 exact exchange contribution

 Linear response parameters
   LEPSILON=     F    determine dielectric tensor
   LRPA    =     F    only Hartree local field effects (RPA)
   LNABLA  =     F    use nabla operator in PAW spheres
   LVEL    =     F    velocity operator in full k-point grid
   LINTERFAST=   F  fast interpolation
   KINTER  =     0    interpolate to denser k-point grid
   CSHIFT  =0.1000    complex shift for real part using Kramers Kronig
   OMEGAMAX=  -1.0    maximum frequency
   DEG_THRESHOLD= 0.2000000E-02 threshold for treating states as degnerate
   RTIME   =   -0.100 relaxation time in fs
  (WPLASMAI=    0.000 imaginary part of plasma frequency in eV, 0.658/RTIME)
   DFIELD  = 0.0000000 0.0000000 0.0000000 field for delta impulse in time
 
 Orbital magnetization related:
   ORBITALMAG=     F  switch on orbital magnetization
   LCHIMAG   =     F  perturbation theory with respect to B field
   DQ        =  0.001000  dq finite difference perturbation B field
   LLRAUG    =     F  two centre corrections for induced B field



--------------------------------------------------------------------------------------------------------


 Static calculation
 charge density and potential remain constant during run
 non-spin polarized calculation
 Variant of blocked Davidson
 Davidson routine will perform the subspace rotation
 perform sub-space diagonalisation
    after iterative eigenvector-optimisation
 no mixing
 using additional bands            4
 reciprocal scheme for non local part
 use partial core corrections
 calculate Harris-corrections to forces 
   (improved forces if not selfconsistent)
 use gradient corrections 
 WARNING: stress and forces are not correct
  (second derivative of E(xc) not defined)
 use of overlap-Matrix (Vanderbilt PP)
 Fermi weights with tetrahedron method with Bloechl corrections


--------------------------------------------------------------------------------------------------------


  energy-cutoff  :      300.00
  volume of cell :      376.64
      direct lattice vectors                 reciprocal lattice vectors
     4.220004082  0.000000000  0.000000000     0.236966595  0.136812601  0.000000000
    -2.110000342  3.654631169  0.000000000     0.000000000  0.273625423  0.000000000
     0.000000000  0.000000000 24.421331406     0.000000000  0.000000000  0.040947808

  length of vectors
     4.220004082  4.220003605 24.421331406     0.273625392  0.273625423  0.040947808


 
 k-points in units of 2pi/SCALE and weight: KPT-Resolved Value to Generate K-Mesh: 0
   0.00000000  0.00000000  0.00000000       0.001
   0.00764408  0.00441331  0.00000000       0.006
   0.01528817  0.00882662  0.00000000       0.006
   0.02293225  0.01323993  0.00000000       0.006
   0.03057633  0.01765324  0.00000000       0.006
   0.03822042  0.02206655  0.00000000       0.006
   0.04586450  0.02647986  0.00000000       0.006
   0.05350859  0.03089317  0.00000000       0.006
   0.06115267  0.03530648  0.00000000       0.006
   0.06879675  0.03971979  0.00000000       0.006
   0.07644084  0.04413310  0.00000000       0.006
   0.08408492  0.04854641  0.00000000       0.006
   0.09172900  0.05295972  0.00000000       0.006
   0.09937309  0.05737303  0.00000000       0.006
   0.10701717  0.06178634  0.00000000       0.006
   0.11466126  0.06619965  0.00000000       0.006
   0.00764408  0.01323994  0.00000000       0.006
   0.01528817  0.01765325  0.00000000       0.012
   0.02293225  0.02206656  0.00000000       0.012
   0.03057633  0.02647987  0.00000000       0.012
   0.03822042  0.03089318  0.00000000       0.012
   0.04586450  0.03530648  0.00000000       0.012
   0.05350859  0.03971979  0.00000000       0.012
   0.06115267  0.04413310  0.00000000       0.012
   0.06879675  0.04854641  0.00000000       0.012
   0.07644084  0.05295972  0.00000000       0.012
   0.08408492  0.05737303  0.00000000       0.012
   0.09172900  0.06178634  0.00000000       0.012
   0.09937309  0.06619965  0.00000000       0.012
   0.10701717  0.07061296  0.00000000       0.012
   0.11466126  0.07502627  0.00000000       0.006
   0.01528817  0.02647987  0.00000000       0.006
   0.02293225  0.03089318  0.00000000       0.012
   0.03057633  0.03530649  0.00000000       0.012
   0.03822042  0.03971980  0.00000000       0.012
   0.04586450  0.04413311  0.00000000       0.012
   0.05350859  0.04854642  0.00000000       0.012
   0.06115267  0.05295973  0.00000000       0.012
   0.06879675  0.05737304  0.00000000       0.012
   0.07644084  0.06178635  0.00000000       0.012
   0.08408492  0.06619966  0.00000000       0.012
   0.09172900  0.07061297  0.00000000       0.012
   0.09937309  0.07502628  0.00000000       0.012
   0.10701717  0.07943959  0.00000000       0.012
   0.02293225  0.03971981  0.00000000       0.006
   0.03057633  0.04413312  0.00000000       0.012
   0.03822042  0.04854643  0.00000000       0.012
   0.04586450  0.05295974  0.00000000       0.012
   0.05350859  0.05737305  0.00000000       0.012
   0.06115267  0.06178636  0.00000000       0.012
   0.06879675  0.06619967  0.00000000       0.012
   0.07644084  0.07061298  0.00000000       0.012
   0.08408492  0.07502629  0.00000000       0.012
   0.09172900  0.07943960  0.00000000       0.012
   0.09937309  0.08385291  0.00000000       0.012
   0.10701717  0.08826622  0.00000000       0.006
   0.03057633  0.05295975  0.00000000       0.006
   0.03822042  0.05737305  0.00000000       0.012
   0.04586450  0.06178636  0.00000000       0.012
   0.05350859  0.06619967  0.00000000       0.012
   0.06115267  0.07061298  0.00000000       0.012
   0.06879675  0.07502629  0.00000000       0.012
   0.07644084  0.07943960  0.00000000       0.012
   0.08408492  0.08385291  0.00000000       0.012
   0.09172900  0.08826622  0.00000000       0.012
   0.09937309  0.09267953  0.00000000       0.012
   0.03822042  0.06619968  0.00000000       0.006
   0.04586450  0.07061299  0.00000000       0.012
   0.05350859  0.07502630  0.00000000       0.012
   0.06115267  0.07943961  0.00000000       0.012
   0.06879675  0.08385292  0.00000000       0.012
   0.07644084  0.08826623  0.00000000       0.012
   0.08408492  0.09267954  0.00000000       0.012
   0.09172900  0.09709285  0.00000000       0.012
   0.09937309  0.10150616  0.00000000       0.006
   0.04586450  0.07943962  0.00000000       0.006
   0.05350859  0.08385293  0.00000000       0.012
   0.06115267  0.08826624  0.00000000       0.012
   0.06879675  0.09267955  0.00000000       0.012
   0.07644084  0.09709286  0.00000000       0.012
   0.08408492  0.10150617  0.00000000       0.012
   0.09172900  0.10591948  0.00000000       0.012
   0.05350859  0.09267955  0.00000000       0.006
   0.06115267  0.09709286  0.00000000       0.012
   0.06879675  0.10150617  0.00000000       0.012
   0.07644084  0.10591948  0.00000000       0.012
   0.08408492  0.11033279  0.00000000       0.012
   0.09172900  0.11474610  0.00000000       0.006
   0.06115267  0.10591949  0.00000000       0.006
   0.06879675  0.11033280  0.00000000       0.012
   0.07644084  0.11474611  0.00000000       0.012
   0.08408492  0.11915942  0.00000000       0.012
   0.06879675  0.11915943  0.00000000       0.006
   0.07644084  0.12357274  0.00000000       0.012
   0.08408492  0.12798605  0.00000000       0.006
   0.07644084  0.13239936  0.00000000       0.006
 
 k-points in reciprocal lattice and weights: KPT-Resolved Value to Generate K-Mesh: 0
   0.00000000  0.00000000  0.00000000       0.001
   0.03225806  0.00000000  0.00000000       0.006
   0.06451613  0.00000000  0.00000000       0.006
   0.09677419  0.00000000  0.00000000       0.006
   0.12903226  0.00000000  0.00000000       0.006
   0.16129032  0.00000000  0.00000000       0.006
   0.19354839  0.00000000  0.00000000       0.006
   0.22580645 -0.00000000  0.00000000       0.006
   0.25806452  0.00000000  0.00000000       0.006
   0.29032258  0.00000000  0.00000000       0.006
   0.32258065  0.00000000  0.00000000       0.006
   0.35483871  0.00000000  0.00000000       0.006
   0.38709677  0.00000000  0.00000000       0.006
   0.41935484  0.00000000  0.00000000       0.006
   0.45161290 -0.00000000  0.00000000       0.006
   0.48387097 -0.00000000  0.00000000       0.006
   0.03225806  0.03225806  0.00000000       0.006
   0.06451613  0.03225806  0.00000000       0.012
   0.09677419  0.03225806  0.00000000       0.012
   0.12903226  0.03225806  0.00000000       0.012
   0.16129032  0.03225806  0.00000000       0.012
   0.19354839  0.03225806  0.00000000       0.012
   0.22580645  0.03225806  0.00000000       0.012
   0.25806452  0.03225806  0.00000000       0.012
   0.29032258  0.03225806  0.00000000       0.012
   0.32258065  0.03225806  0.00000000       0.012
   0.35483871  0.03225806  0.00000000       0.012
   0.38709677  0.03225806  0.00000000       0.012
   0.41935484  0.03225806  0.00000000       0.012
   0.45161290  0.03225806  0.00000000       0.012
   0.48387097  0.03225806  0.00000000       0.006
   0.06451613  0.06451613  0.00000000       0.006
   0.09677419  0.06451613  0.00000000       0.012
   0.12903226  0.06451613  0.00000000       0.012
   0.16129032  0.06451613  0.00000000       0.012
   0.19354839  0.06451613  0.00000000       0.012
   0.22580645  0.06451613  0.00000000       0.012
   0.25806452  0.06451613  0.00000000       0.012
   0.29032258  0.06451613  0.00000000       0.012
   0.32258065  0.06451613  0.00000000       0.012
   0.35483871  0.06451613  0.00000000       0.012
   0.38709677  0.06451613  0.00000000       0.012
   0.41935484  0.06451613  0.00000000       0.012
   0.45161290  0.06451613  0.00000000       0.012
   0.09677419  0.09677419  0.00000000       0.006
   0.12903226  0.09677419  0.00000000       0.012
   0.16129032  0.09677419  0.00000000       0.012
   0.19354839  0.09677419  0.00000000       0.012
   0.22580645  0.09677419  0.00000000       0.012
   0.25806452  0.09677419  0.00000000       0.012
   0.29032258  0.09677419  0.00000000       0.012
   0.32258065  0.09677419  0.00000000       0.012
   0.35483871  0.09677419  0.00000000       0.012
   0.38709677  0.09677419  0.00000000       0.012
   0.41935484  0.09677419  0.00000000       0.012
   0.45161290  0.09677419  0.00000000       0.006
   0.12903226  0.12903226  0.00000000       0.006
   0.16129032  0.12903226  0.00000000       0.012
   0.19354839  0.12903226  0.00000000       0.012
   0.22580645  0.12903226  0.00000000       0.012
   0.25806452  0.12903226  0.00000000       0.012
   0.29032258  0.12903226  0.00000000       0.012
   0.32258065  0.12903226  0.00000000       0.012
   0.35483871  0.12903226  0.00000000       0.012
   0.38709677  0.12903226  0.00000000       0.012
   0.41935484  0.12903226  0.00000000       0.012
   0.16129032  0.16129032  0.00000000       0.006
   0.19354839  0.16129032  0.00000000       0.012
   0.22580645  0.16129032  0.00000000       0.012
   0.25806452  0.16129032  0.00000000       0.012
   0.29032258  0.16129032  0.00000000       0.012
   0.32258065  0.16129032  0.00000000       0.012
   0.35483871  0.16129032  0.00000000       0.012
   0.38709677  0.16129032  0.00000000       0.012
   0.41935484  0.16129032  0.00000000       0.006
   0.19354839  0.19354839  0.00000000       0.006
   0.22580645  0.19354839  0.00000000       0.012
   0.25806452  0.19354839  0.00000000       0.012
   0.29032258  0.19354839  0.00000000       0.012
   0.32258065  0.19354839  0.00000000       0.012
   0.35483871  0.19354839  0.00000000       0.012
   0.38709677  0.19354839  0.00000000       0.012
   0.22580645  0.22580645  0.00000000       0.006
   0.25806452  0.22580645  0.00000000       0.012
   0.29032258  0.22580645  0.00000000       0.012
   0.32258065  0.22580645  0.00000000       0.012
   0.35483871  0.22580645  0.00000000       0.012
   0.38709677  0.22580645  0.00000000       0.006
   0.25806452  0.25806452  0.00000000       0.006
   0.29032258  0.25806452  0.00000000       0.012
   0.32258065  0.25806452  0.00000000       0.012
   0.35483871  0.25806452  0.00000000       0.012
   0.29032258  0.29032258  0.00000000       0.006
   0.32258065  0.29032258  0.00000000       0.012
   0.35483871  0.29032258  0.00000000       0.006
   0.32258065  0.32258065  0.00000000       0.006
 
 position of ions in fractional coordinates (direct lattice) 
   0.00000000  0.00000000  0.44230449
   0.00000000  0.00000000  0.55769652
   0.66666698  0.33333299  0.38816997
   0.33333299  0.66666698  0.61183006
 
 position of ions in cartesian coordinates  (Angst):
   0.00000000  0.00000000 10.80166458
   0.00000000  0.00000000 13.61969156
   2.11000468  1.21820912  9.47962758
  -0.00000101  2.43642194 14.94170456
 


--------------------------------------------------------------------------------------------------------


 k-point  1 :   0.0000 0.0000 0.0000  plane waves:    4359
 k-point  2 :   0.0323 0.0000 0.0000  plane waves:    4367
 k-point  3 :   0.0645 0.0000 0.0000  plane waves:    4389
 k-point  4 :   0.0968 0.0000 0.0000  plane waves:    4399
 k-point  5 :   0.1290 0.0000 0.0000  plane waves:    4393
 k-point  6 :   0.1613 0.0000 0.0000  plane waves:    4407
 k-point  7 :   0.1935 0.0000 0.0000  plane waves:    4412
 k-point  8 :   0.2258-0.0000 0.0000  plane waves:    4432
 k-point  9 :   0.2581 0.0000 0.0000  plane waves:    4432
 k-point 10 :   0.2903 0.0000 0.0000  plane waves:    4440
 k-point 11 :   0.3226 0.0000 0.0000  plane waves:    4430
 k-point 12 :   0.3548 0.0000 0.0000  plane waves:    4440
 k-point 13 :   0.3871 0.0000 0.0000  plane waves:    4432
 k-point 14 :   0.4194 0.0000 0.0000  plane waves:    4438
 k-point 15 :   0.4516-0.0000 0.0000  plane waves:    4454
 k-point 16 :   0.4839-0.0000 0.0000  plane waves:    4460
 k-point 17 :   0.0323 0.0323 0.0000  plane waves:    4378
 k-point 18 :   0.0645 0.0323 0.0000  plane waves:    4385
 k-point 19 :   0.0968 0.0323 0.0000  plane waves:    4401
 k-point 20 :   0.1290 0.0323 0.0000  plane waves:    4390
 k-point 21 :   0.1613 0.0323 0.0000  plane waves:    4407
 k-point 22 :   0.1935 0.0323 0.0000  plane waves:    4416
 k-point 23 :   0.2258 0.0323 0.0000  plane waves:    4426
 k-point 24 :   0.2581 0.0323 0.0000  plane waves:    4417
 k-point 25 :   0.2903 0.0323 0.0000  plane waves:    4441
 k-point 26 :   0.3226 0.0323 0.0000  plane waves:    4441
 k-point 27 :   0.3548 0.0323 0.0000  plane waves:    4438
 k-point 28 :   0.3871 0.0323 0.0000  plane waves:    4440
 k-point 29 :   0.4194 0.0323 0.0000  plane waves:    4448
 k-point 30 :   0.4516 0.0323 0.0000  plane waves:    4452
 k-point 31 :   0.4839 0.0323 0.0000  plane waves:    4452
 k-point 32 :   0.0645 0.0645 0.0000  plane waves:    4392
 k-point 33 :   0.0968 0.0645 0.0000  plane waves:    4400
 k-point 34 :   0.1290 0.0645 0.0000  plane waves:    4406
 k-point 35 :   0.1613 0.0645 0.0000  plane waves:    4414
 k-point 36 :   0.1935 0.0645 0.0000  plane waves:    4424
 k-point 37 :   0.2258 0.0645 0.0000  plane waves:    4432
 k-point 38 :   0.2581 0.0645 0.0000  plane waves:    4440
 k-point 39 :   0.2903 0.0645 0.0000  plane waves:    4442
 k-point 40 :   0.3226 0.0645 0.0000  plane waves:    4446
 k-point 41 :   0.3548 0.0645 0.0000  plane waves:    4444
 k-point 42 :   0.3871 0.0645 0.0000  plane waves:    4438
 k-point 43 :   0.4194 0.0645 0.0000  plane waves:    4463
 k-point 44 :   0.4516 0.0645 0.0000  plane waves:    4456
 k-point 45 :   0.0968 0.0968 0.0000  plane waves:    4414
 k-point 46 :   0.1290 0.0968 0.0000  plane waves:    4417
 k-point 47 :   0.1613 0.0968 0.0000  plane waves:    4429
 k-point 48 :   0.1935 0.0968 0.0000  plane waves:    4425
 k-point 49 :   0.2258 0.0968 0.0000  plane waves:    4434
 k-point 50 :   0.2581 0.0968 0.0000  plane waves:    4445
 k-point 51 :   0.2903 0.0968 0.0000  plane waves:    4445
 k-point 52 :   0.3226 0.0968 0.0000  plane waves:    4453
 k-point 53 :   0.3548 0.0968 0.0000  plane waves:    4448
 k-point 54 :   0.3871 0.0968 0.0000  plane waves:    4452
 k-point 55 :   0.4194 0.0968 0.0000  plane waves:    4470
 k-point 56 :   0.4516 0.0968 0.0000  plane waves:    4458
 k-point 57 :   0.1290 0.1290 0.0000  plane waves:    4420
 k-point 58 :   0.1613 0.1290 0.0000  plane waves:    4426
 k-point 59 :   0.1935 0.1290 0.0000  plane waves:    4446
 k-point 60 :   0.2258 0.1290 0.0000  plane waves:    4447
 k-point 61 :   0.2581 0.1290 0.0000  plane waves:    4453
 k-point 62 :   0.2903 0.1290 0.0000  plane waves:    4451
 k-point 63 :   0.3226 0.1290 0.0000  plane waves:    4455
 k-point 64 :   0.3548 0.1290 0.0000  plane waves:    4456
 k-point 65 :   0.3871 0.1290 0.0000  plane waves:    4471
 k-point 66 :   0.4194 0.1290 0.0000  plane waves:    4480
 k-point 67 :   0.1613 0.1613 0.0000  plane waves:    4452
 k-point 68 :   0.1935 0.1613 0.0000  plane waves:    4446
 k-point 69 :   0.2258 0.1613 0.0000  plane waves:    4451
 k-point 70 :   0.2581 0.1613 0.0000  plane waves:    4463
 k-point 71 :   0.2903 0.1613 0.0000  plane waves:    4457
 k-point 72 :   0.3226 0.1613 0.0000  plane waves:    4466
 k-point 73 :   0.3548 0.1613 0.0000  plane waves:    4474
 k-point 74 :   0.3871 0.1613 0.0000  plane waves:    4475
 k-point 75 :   0.4194 0.1613 0.0000  plane waves:    4490
 k-point 76 :   0.1935 0.1935 0.0000  plane waves:    4450
 k-point 77 :   0.2258 0.1935 0.0000  plane waves:    4448
 k-point 78 :   0.2581 0.1935 0.0000  plane waves:    4451
 k-point 79 :   0.2903 0.1935 0.0000  plane waves:    4460
 k-point 80 :   0.3226 0.1935 0.0000  plane waves:    4466
 k-point 81 :   0.3548 0.1935 0.0000  plane waves:    4476
 k-point 82 :   0.3871 0.1935 0.0000  plane waves:    4488
 k-point 83 :   0.2258 0.2258 0.0000  plane waves:    4442
 k-point 84 :   0.2581 0.2258 0.0000  plane waves:    4461
 k-point 85 :   0.2903 0.2258 0.0000  plane waves:    4458
 k-point 86 :   0.3226 0.2258 0.0000  plane waves:    4479
 k-point 87 :   0.3548 0.2258 0.0000  plane waves:    4482
 k-point 88 :   0.3871 0.2258 0.0000  plane waves:    4476
 k-point 89 :   0.2581 0.2581 0.0000  plane waves:    4458
 k-point 90 :   0.2903 0.2581 0.0000  plane waves:    4465
 k-point 91 :   0.3226 0.2581 0.0000  plane waves:    4465
 k-point 92 :   0.3548 0.2581 0.0000  plane waves:    4478
 k-point 93 :   0.2903 0.2903 0.0000  plane waves:    4472
 k-point 94 :   0.3226 0.2903 0.0000  plane waves:    4483
 k-point 95 :   0.3548 0.2903 0.0000  plane waves:    4486
 k-point 96 :   0.3226 0.3226 0.0000  plane waves:    4480

 maximum and minimum number of plane-waves per node :       383      346

 maximum number of plane-waves:      4490
 maximum index in each direction: 
   IXMAX=    5   IYMAX=    5   IZMAX=   34
   IXMIN=   -6   IYMIN=   -6   IZMIN=  -34


 parallel 3D FFT for wavefunctions:
    minimum data exchange during FFTs selected (reduces bandwidth)
 parallel 3D FFT for charge:
    minimum data exchange during FFTs selected (reduces bandwidth)


 total amount of memory used by VASP MPI-rank0    50610. kBytes
=======================================================================

   base      :      30000. kBytes
   nonl-proj :       7532. kBytes
   fftplans  :       2008. kBytes
   grid      :       3295. kBytes
   one-center:          8. kBytes
   wavefun   :       7767. kBytes
 
     INWAV:  cpu time    0.0001: real time    0.0004
 initial charge density was supplied:
 number of electron      17.9999992 magnetization 
 keeping initial charge density in first step


--------------------------------------------------------------------------------------------------------


 Maximum index for augmentation-charges         2018 (set IRDMAX)


--------------------------------------------------------------------------------------------------------


 First call to EWALD:  gamma=   0.245
 Maximum number of real-space cells 5x 5x 1
 Maximum number of reciprocal cells 2x 2x 8

    FEWALD:  cpu time    0.0026: real time    0.0032


--------------------------------------- Iteration      1(   1)  ---------------------------------------


    POTLOK:  cpu time    0.0660: real time    0.1703
    SETDIJ:  cpu time    0.0060: real time    0.0060
     EDDAV:  cpu time    3.4541: real time    3.4922
 BZINTS: Fermi energy:  6.126549; 18.000000 electrons
         Band energy:  -3.455519;  BLOECHL correction: -0.139290
       DOS:  cpu time    0.0114: real time    0.0114
    --------------------------------------------
      LOOP:  cpu time    3.5375: real time    3.6798

 eigenvalue-minimisations  :  2496
 total energy-change (2. order) : 0.1265684E+03  (-0.3704342E+03)
 number of electron      17.9999992 magnetization 
 augmentation part       17.9999992 magnetization 

 Free energy of the ion-electron system (eV)
  ---------------------------------------------------
  alpha Z        PSCENC =         4.00553311
  Ewald energy   TEWEN  =      1172.99973661
  -Hartree energ DENC   =     -1707.93068201
  -exchange      EXHF   =         0.00000000
  -V(xc)+E(xc)   XCENC  =      -203.19223504
  PAW double counting   =       934.65419334     -699.83488953
  entropy T*S    EENTRO =         0.00000000
  eigenvalues    EBANDS =        -3.45551851
  atomic energy  EATOM  =       629.32225094
  Solvation  Ediel_sol  =         0.00000000
  ---------------------------------------------------
  free energy    TOTEN  =       126.56838891 eV

  energy without entropy =      126.56838891  energy(sigma->0) =      126.56838891


--------------------------------------------------------------------------------------------------------




--------------------------------------- Iteration      1(   2)  ---------------------------------------


     EDDAV:  cpu time    4.8703: real time    4.9118
 BZINTS: Fermi energy: -1.267284; 18.000000 electrons
         Band energy:-122.620256;  BLOECHL correction: -0.001809
       DOS:  cpu time    0.0105: real time    0.0104
    --------------------------------------------
      LOOP:  cpu time    4.8807: real time    4.9222

 eigenvalue-minimisations  :  4130
 total energy-change (2. order) :-0.1191647E+03  (-0.1154834E+03)
 number of electron      17.9999992 magnetization 
 augmentation part       17.9999992 magnetization 

 Free energy of the ion-electron system (eV)
  ---------------------------------------------------
  alpha Z        PSCENC =         4.00553311
  Ewald energy   TEWEN  =      1172.99973661
  -Hartree energ DENC   =     -1707.93068201
  -exchange      EXHF   =         0.00000000
  -V(xc)+E(xc)   XCENC  =      -203.19223504
  PAW double counting   =       934.65419334     -699.83488953
  entropy T*S    EENTRO =         0.00000000
  eigenvalues    EBANDS =      -122.62025620
  atomic energy  EATOM  =       629.32225094
  Solvation  Ediel_sol  =         0.00000000
  ---------------------------------------------------
  free energy    TOTEN  =         7.40365122 eV

  energy without entropy =        7.40365122  energy(sigma->0) =        7.40365122


--------------------------------------------------------------------------------------------------------




--------------------------------------- Iteration      1(   3)  ---------------------------------------


     EDDAV:  cpu time    3.9520: real time    3.9838
 BZINTS: Fermi energy: -3.244145; 18.000000 electrons
         Band energy:-141.388907;  BLOECHL correction:  0.000000
       DOS:  cpu time    0.0028: real time    0.0028
    --------------------------------------------
      LOOP:  cpu time    3.9548: real time    3.9866

 eigenvalue-minimisations  :  3166
 total energy-change (2. order) :-0.1876865E+02  (-0.1856135E+02)
 number of electron      17.9999992 magnetization 
 augmentation part       17.9999992 magnetization 

 Free energy of the ion-electron system (eV)
  ---------------------------------------------------
  alpha Z        PSCENC =         4.00553311
  Ewald energy   TEWEN  =      1172.99973661
  -Hartree energ DENC   =     -1707.93068201
  -exchange      EXHF   =         0.00000000
  -V(xc)+E(xc)   XCENC  =      -203.19223504
  PAW double counting   =       934.65419334     -699.83488953
  entropy T*S    EENTRO =         0.00000000
  eigenvalues    EBANDS =      -141.38890657
  atomic energy  EATOM  =       629.32225094
  Solvation  Ediel_sol  =         0.00000000
  ---------------------------------------------------
  free energy    TOTEN  =       -11.36499915 eV

  energy without entropy =      -11.36499915  energy(sigma->0) =      -11.36499915


--------------------------------------------------------------------------------------------------------




--------------------------------------- Iteration      1(   4)  ---------------------------------------


     EDDAV:  cpu time    3.9970: real time    4.0299
 BZINTS: Fermi energy: -3.319293; 18.000000 electrons
         Band energy:-142.084796;  BLOECHL correction:  0.000000
       DOS:  cpu time    0.0025: real time    0.0026
    --------------------------------------------
      LOOP:  cpu time    3.9996: real time    4.0325

 eigenvalue-minimisations  :  3218
 total energy-change (2. order) :-0.6958896E+00  (-0.6930637E+00)
 number of electron      17.9999992 magnetization 
 augmentation part       17.9999992 magnetization 

 Free energy of the ion-electron system (eV)
  ---------------------------------------------------
  alpha Z        PSCENC =         4.00553311
  Ewald energy   TEWEN  =      1172.99973661
  -Hartree energ DENC   =     -1707.93068201
  -exchange      EXHF   =         0.00000000
  -V(xc)+E(xc)   XCENC  =      -203.19223504
  PAW double counting   =       934.65419334     -699.83488953
  entropy T*S    EENTRO =         0.00000000
  eigenvalues    EBANDS =      -142.08479615
  atomic energy  EATOM  =       629.32225094
  Solvation  Ediel_sol  =         0.00000000
  ---------------------------------------------------
  free energy    TOTEN  =       -12.06088874 eV

  energy without entropy =      -12.06088874  energy(sigma->0) =      -12.06088874


--------------------------------------------------------------------------------------------------------




--------------------------------------- Iteration      1(   5)  ---------------------------------------


     EDDAV:  cpu time    4.5003: real time    4.5358
 BZINTS: Fermi energy: -3.320835; 18.000000 electrons
         Band energy:-142.107816;  BLOECHL correction:  0.000000
       DOS:  cpu time    0.0024: real time    0.0024
    --------------------------------------------
      LOOP:  cpu time    4.5027: real time    4.5382

 eigenvalue-minimisations  :  3763
 total energy-change (2. order) :-0.2302001E-01  (-0.2301370E-01)
 number of electron      17.9999992 magnetization 
 augmentation part       17.9999992 magnetization 

 Free energy of the ion-electron system (eV)
  ---------------------------------------------------
  alpha Z        PSCENC =         4.00553311
  Ewald energy   TEWEN  =      1172.99973661
  -Hartree energ DENC   =     -1707.93068201
  -exchange      EXHF   =         0.00000000
  -V(xc)+E(xc)   XCENC  =      -203.19223504
  PAW double counting   =       934.65419334     -699.83488953
  entropy T*S    EENTRO =         0.00000000
  eigenvalues    EBANDS =      -142.10781616
  atomic energy  EATOM  =       629.32225094
  Solvation  Ediel_sol  =         0.00000000
  ---------------------------------------------------
  free energy    TOTEN  =       -12.08390874 eV

  energy without entropy =      -12.08390874  energy(sigma->0) =      -12.08390874


--------------------------------------------------------------------------------------------------------




--------------------------------------- Iteration      1(   6)  ---------------------------------------


     EDDAV:  cpu time    4.0905: real time    4.1343
 BZINTS: Fermi energy: -3.322612; 18.000000 electrons
         Band energy:-142.108188;  BLOECHL correction:  0.000000
       DOS:  cpu time    0.0024: real time    0.0024
    --------------------------------------------
      LOOP:  cpu time    4.0929: real time    4.1366

 eigenvalue-minimisations  :  3331
 total energy-change (2. order) :-0.3723327E-03  (-0.3722598E-03)
 number of electron      17.9999992 magnetization 
 augmentation part       17.9999992 magnetization 

 Free energy of the ion-electron system (eV)
  ---------------------------------------------------
  alpha Z        PSCENC =         4.00553311
  Ewald energy   TEWEN  =      1172.99973661
  -Hartree energ DENC   =     -1707.93068201
  -exchange      EXHF   =         0.00000000
  -V(xc)+E(xc)   XCENC  =      -203.19223504
  PAW double counting   =       934.65419334     -699.83488953
  entropy T*S    EENTRO =         0.00000000
  eigenvalues    EBANDS =      -142.10818849
  atomic energy  EATOM  =       629.32225094
  Solvation  Ediel_sol  =         0.00000000
  ---------------------------------------------------
  free energy    TOTEN  =       -12.08428108 eV

  energy without entropy =      -12.08428108  energy(sigma->0) =      -12.08428108


--------------------------------------------------------------------------------------------------------




--------------------------------------- Iteration      1(   7)  ---------------------------------------


     EDDAV:  cpu time    3.4363: real time    3.4631
 BZINTS: Fermi energy: -3.319377; 18.000000 electrons
         Band energy:-142.108202;  BLOECHL correction:  0.000000
       DOS:  cpu time    0.0025: real time    0.0025
    --------------------------------------------
      LOOP:  cpu time    3.4398: real time    3.4656

 eigenvalue-minimisations  :  2632
 total energy-change (2. order) :-0.1312779E-04  (-0.1312742E-04)
 number of electron      17.9999992 magnetization 
 augmentation part       17.9999992 magnetization 

 Free energy of the ion-electron system (eV)
  ---------------------------------------------------
  alpha Z        PSCENC =         4.00553311
  Ewald energy   TEWEN  =      1172.99973661
  -Hartree energ DENC   =     -1707.93068201
  -exchange      EXHF   =         0.00000000
  -V(xc)+E(xc)   XCENC  =      -203.19223504
  PAW double counting   =       934.65419334     -699.83488953
  entropy T*S    EENTRO =         0.00000000
  eigenvalues    EBANDS =      -142.10820162
  atomic energy  EATOM  =       629.32225094
  Solvation  Ediel_sol  =         0.00000000
  ---------------------------------------------------
  free energy    TOTEN  =       -12.08429420 eV

  energy without entropy =      -12.08429420  energy(sigma->0) =      -12.08429420


--------------------------------------------------------------------------------------------------------




 average (electrostatic) potential at core
  the test charge radii are     1.4840  1.0808
  (the norm of the test charge is              1.0000)
       1 -48.0174       2 -48.0178       3 -60.7765       4 -60.7773
 
 
 
 E-fermi :  -3.3194     XC(G=0):  -3.3398     alpha+bet : -2.6379


 k-point     1 :       0.0000    0.0000    0.0000
  band No.  band energies     occupation 
      1     -15.6798      2.00000
      2     -15.5840      2.00000
      3      -9.4291      2.00000
      4      -6.9860      2.00000
      5      -3.8140      2.00000
      6      -3.8140      2.00000
      7      -3.7204      2.00000
      8      -3.7204      2.00000
      9      -3.3937      2.00000
     10      -2.7302      0.00000
     11      -1.0247      0.00000
     12       1.4725      0.00000
     13       1.4732      0.00000

 k-point     2 :       0.0323    0.0000    0.0000
  band No.  band energies     occupation 
      1     -15.6733      2.00000
      2     -15.5779      2.00000
      3      -9.4275      2.00000
      4      -6.9941      2.00000
      5      -3.8821      2.00000
      6      -3.8255      2.00000
      7      -3.7888      2.00000
      8      -3.7301      2.00000
      9      -3.3771      2.00000
     10      -2.6638      0.00000
     11      -0.9698      0.00000
     12       1.3904      0.00000
     13       1.4822      0.00000

 k-point     3 :       0.0645    0.0000    0.0000
  band No.  band energies     occupation 
      1     -15.6541      2.00000
      2     -15.5597      2.00000
      3      -9.4232      2.00000
      4      -7.0190      2.00000
      5      -4.0517      2.00000
      6      -3.9506      2.00000
      7      -3.8591      2.00000
      8      -3.7583      2.00000
      9      -3.3495      2.00000
     10      -2.5086      0.00000
     11      -0.8188      0.00000
     12       1.1872      0.00000
     13       1.5053      0.00000

 k-point     4 :       0.0968    0.0000    0.0000
  band No.  band energies     occupation 
      1     -15.6225      2.00000
      2     -15.5299      2.00000
      3      -9.4172      2.00000
      4      -7.0629      2.00000
      5      -4.2736      2.00000
      6      -4.1458      2.00000
      7      -3.9126      2.00000
      8      -3.8034      2.00000
      9      -3.3322      2.00000
     10      -2.3275      0.00000
     11      -0.6052      0.00000
     12       0.9314      0.00000
     13       1.5422      0.00000

 k-point     5 :       0.1290    0.0000    0.0000
  band No.  band energies     occupation 
      1     -15.5792      2.00000
      2     -15.4893      2.00000
      3      -9.4115      2.00000
      4      -7.1288      2.00000
      5      -4.5157      2.00000
      6      -4.3404      2.00000
      7      -3.9825      2.00000
      8      -3.8626      2.00000
      9      -3.3300      2.00000
     10      -2.1568      0.00000
     11      -0.3707      0.00000
     12       0.6710      0.00000
     13       1.5865      0.00000

 k-point     6 :       0.1613    0.0000    0.0000
  band No.  band energies     occupation 
      1     -15.5252      2.00000
      2     -15.4388      2.00000
      3      -9.4084      2.00000
      4      -7.2196      2.00000
      5      -4.7575      2.00000
      6      -4.5158      2.00000
      7      -4.0646      2.00000
      8      -3.9327      2.00000
      9      -3.3444      2.00000
     10      -2.0165      0.00000
     11      -0.1711      0.00000
     12       0.4490      0.00000
     13       1.6395      0.00000

 k-point     7 :       0.1935    0.0000    0.0000
  band No.  band energies     occupation 
      1     -15.4621      2.00000
      2     -15.3799      2.00000
      3      -9.4110      2.00000
      4      -7.3360      2.00000
      5      -4.9840      2.00000
      6      -4.6616      2.00000
      7      -4.1546      2.00000
      8      -4.0099      2.00000
      9      -3.3776      2.00000
     10      -1.9178      0.00000
     11      -0.1028      0.00000
     12       0.3386      0.00000
     13       1.6788      0.00000

 k-point     8 :       0.2258   -0.0000    0.0000
  band No.  band energies     occupation 
      1     -15.3914      2.00000
      2     -15.3145      2.00000
      3      -9.4219      2.00000
      4      -7.4758      2.00000
      5      -5.1838      2.00000
      6      -4.7742      2.00000
      7      -4.2481      2.00000
      8      -4.0906      2.00000
      9      -3.4317      2.00000
     10      -1.8643      0.00000
     11      -0.1980      0.00000
     12       0.3509      0.00000
     13       1.7206      0.00000

 k-point     9 :       0.2581    0.0000    0.0000
  band No.  band energies     occupation 
      1     -15.3155      2.00000
      2     -15.2446      2.00000
      3      -9.4436      2.00000
      4      -7.6336      2.00000
      5      -5.3482      2.00000
      6      -4.8556      2.00000
      7      -4.3411      2.00000
      8      -4.1712      2.00000
      9      -3.5075      2.00000
     10      -1.8524      0.00000
     11      -0.3331      0.00000
     12       0.3635      0.00000
     13       1.7435      0.00000

 k-point    10 :       0.2903    0.0000    0.0000
  band No.  band energies     occupation 
      1     -15.2370      2.00000
      2     -15.1730      2.00000
      3      -9.4769      2.00000
      4      -7.8007      2.00000
      5      -5.4712      2.00000
      6      -4.9121      2.00000
      7      -4.4301      2.00000
      8      -4.2487      2.00000
      9      -3.6026      2.00000
     10      -1.8736      0.00000
     11      -0.4513      0.00000
     12       0.3410      0.00000
     13       1.7501      0.00000

 k-point    11 :       0.3226    0.0000    0.0000
  band No.  band energies     occupation 
      1     -15.1589      2.00000
      2     -15.1028      2.00000
      3      -9.5207      2.00000
      4      -7.9674      2.00000
      5      -5.5499      2.00000
      6      -4.9531      2.00000
      7      -4.5120      2.00000
      8      -4.3202      2.00000
      9      -3.7103      2.00000
     10      -1.9180      0.00000
     11      -0.5399      0.00000
     12       0.2932      0.00000
     13       1.7574      0.00000

 k-point    12 :       0.3548    0.0000    0.0000
  band No.  band energies     occupation 
      1     -15.0848      2.00000
      2     -15.0372      2.00000
      3      -9.5715      2.00000
      4      -8.1240      2.00000
      5      -5.5846      2.00000
      6      -4.9894      2.00000
      7      -4.5841      2.00000
      8      -4.3834      2.00000
      9      -3.8206      2.00000
     10      -1.9757      0.00000
     11      -0.5974      0.00000
     12       0.2322      0.00000
     13       1.7585      0.00000

 k-point    13 :       0.3871    0.0000    0.0000
  band No.  band energies     occupation 
      1     -15.0182      2.00000
      2     -14.9798      2.00000
      3      -9.6238      2.00000
      4      -8.2613      2.00000
      5      -5.5788      2.00000
      6      -5.0321      2.00000
      7      -4.6442      2.00000
      8      -4.4362      2.00000
      9      -3.9213      2.00000
     10      -2.0374      0.00000
     11      -0.6273      0.00000
     12       0.1678      0.00000
     13       1.7564      0.00000

 k-point    14 :       0.4194    0.0000    0.0000
  band No.  band energies     occupation 
      1     -14.9631      2.00000
      2     -14.9340      2.00000
      3      -9.6710      2.00000
      4      -8.3716      2.00000
      5      -5.5391      2.00000
      6      -5.0890      2.00000
      7      -4.6908      2.00000
      8      -4.4772      2.00000
      9      -4.0016      2.00000
     10      -2.0940      0.00000
     11      -0.6369      0.00000
     12       0.1082      0.00000
     13       1.7526      0.00000

 k-point    15 :       0.4516   -0.0000    0.0000
  band No.  band energies     occupation 
      1     -14.9229      2.00000
      2     -14.9028      2.00000
      3      -9.7068      2.00000
      4      -8.4488      2.00000
      5      -5.4756      2.00000
      6      -5.1604      2.00000
      7      -4.7225      2.00000
      8      -4.5051      2.00000
      9      -4.0552      2.00000
     10      -2.1371      0.00000
     11      -0.6353      0.00000
     12       0.0617      0.00000
     13       1.7493      0.00000

 k-point    16 :       0.4839   -0.0000    0.0000
  band No.  band energies     occupation 
      1     -14.9009      2.00000
      2     -14.8877      2.00000
      3      -9.7261      2.00000
      4      -8.4885      2.00000
      5      -5.4102      2.00000
      6      -5.2293      2.00000
      7      -4.7386      2.00000
      8      -4.5192      2.00000
      9      -4.0814      2.00000
     10      -2.1604      0.00000
     11      -0.6315      0.00000
     12       0.0359      0.00000
     13       1.7474      0.00000

 k-point    17 :       0.0323    0.0323    0.0000
  band No.  band energies     occupation 
      1     -15.6605      2.00000
      2     -15.5658      2.00000
      3      -9.4245      2.00000
      4      -7.0105      2.00000
      5      -3.9969      2.00000
      6      -3.9097      2.00000
      7      -3.8399      2.00000
      8      -3.7522      2.00000
      9      -3.3563      2.00000
     10      -2.5546      0.00000
     11      -0.8669      0.00000
     12       1.2514      0.00000
     13       1.4948      0.00000

 k-point    18 :       0.0645    0.0323    0.0000
  band No.  band energies     occupation 
      1     -15.6350      2.00000
      2     -15.5418      2.00000
      3      -9.4194      2.00000
      4      -7.0449      2.00000
      5      -4.1865      2.00000
      6      -4.0800      2.00000
      7      -3.8859      2.00000
      8      -3.7933      2.00000
      9      -3.3364      2.00000
     10      -2.3907      0.00000
     11      -0.6845      0.00000
     12       1.0308      0.00000
     13       1.5176      0.00000

 k-point    19 :       0.0968    0.0323    0.0000
  band No.  band energies     occupation 
      1     -15.5976      2.00000
      2     -15.5065      2.00000
      3      -9.4135      2.00000
      4      -7.0999      2.00000
      5      -4.4135      2.00000
      6      -4.2661      2.00000
      7      -3.9513      2.00000
      8      -3.8492      2.00000
      9      -3.3283      2.00000
     10      -2.2182      0.00000
     11      -0.4590      0.00000
     12       0.7818      0.00000
     13       1.5469      0.00000

 k-point    20 :       0.1290    0.0323    0.0000
  band No.  band energies     occupation 
      1     -15.5489      2.00000
      2     -15.4610      2.00000
      3      -9.4091      2.00000
      4      -7.1782      2.00000
      5      -4.6512      2.00000
      6      -4.4436      2.00000
      7      -4.0319      2.00000
      8      -3.9173      2.00000
      9      -3.3350      2.00000
     10      -2.0643      0.00000
     11      -0.2359      0.00000
     12       0.5464      0.00000
     13       1.5937      0.00000

 k-point    21 :       0.1613    0.0323    0.0000
  band No.  band energies     occupation 
      1     -15.4904      2.00000
      2     -15.4063      2.00000
      3      -9.4089      2.00000
      4      -7.2819      2.00000
      5      -4.8816      2.00000
      6      -4.5981      2.00000
      7      -4.1229      2.00000
      8      -3.9943      2.00000
      9      -3.3586      2.00000
     10      -1.9452      0.00000
     11      -0.0904      0.00000
     12       0.3815      0.00000
     13       1.6052      0.00000

 k-point    22 :       0.1935    0.0323    0.0000
  band No.  band energies     occupation 
      1     -15.4234      2.00000
      2     -15.3440      2.00000
      3      -9.4156      2.00000
      4      -7.4101      2.00000
      5      -5.0916      2.00000
      6      -4.7226      2.00000
      7      -4.2194      2.00000
      8      -4.0764      2.00000
      9      -3.4015      2.00000
     10      -1.8689      0.00000
     11      -0.1208      0.00000
     12       0.3605      0.00000
     13       1.6347      0.00000

 k-point    23 :       0.2258    0.0323    0.0000
  band No.  band energies     occupation 
      1     -15.3501      2.00000
      2     -15.2763      2.00000
      3      -9.4320      2.00000
      4      -7.5590      2.00000
      5      -5.2711      2.00000
      6      -4.8163      2.00000
      7      -4.3170      2.00000
      8      -4.1597      2.00000
      9      -3.4657      2.00000
     10      -1.8360      0.00000
     11      -0.2492      0.00000
     12       0.3920      0.00000
     13       1.6598      0.00000

 k-point    24 :       0.2581    0.0323    0.0000
  band No.  band energies     occupation 
      1     -15.2728      2.00000
      2     -15.2055      2.00000
      3      -9.4597      2.00000
      4      -7.7214      2.00000
      5      -5.4127      2.00000
      6      -4.8833      2.00000
      7      -4.4115      2.00000
      8      -4.2407      2.00000
      9      -3.5504      2.00000
     10      -1.8406      0.00000
     11      -0.3777      0.00000
     12       0.3905      0.00000
     13       1.6773      0.00000

 k-point    25 :       0.2903    0.0323    0.0000
  band No.  band energies     occupation 
      1     -15.1943      2.00000
      2     -15.1345      2.00000
      3      -9.4985      2.00000
      4      -7.8883      2.00000
      5      -5.5119      2.00000
      6      -4.9317      2.00000
      7      -4.4989      2.00000
      8      -4.3159      2.00000
      9      -3.6517      2.00000
     10      -1.8734      0.00000
     11      -0.4812      0.00000
     12       0.3553      0.00000
     13       1.6903      0.00000

 k-point    26 :       0.3226    0.0323    0.0000
  band No.  band energies     occupation 
      1     -15.1180      2.00000
      2     -15.0664      2.00000
      3      -9.5462      2.00000
      4      -8.0498      2.00000
      5      -5.5674      2.00000
      6      -4.9716      2.00000
      7      -4.5763      2.00000
      8      -4.3824      2.00000
      9      -3.7616      2.00000
     10      -1.9246      0.00000
     11      -0.5543      0.00000
     12       0.3006      0.00000
     13       1.6963      0.00000

 k-point    27 :       0.3548    0.0323    0.0000
  band No.  band energies     occupation 
      1     -15.0475      2.00000
      2     -15.0047      2.00000
      3      -9.5982      2.00000
      4      -8.1965      2.00000
      5      -5.5811      2.00000
      6      -5.0138      2.00000
      7      -4.6412      2.00000
      8      -4.4381      2.00000
      9      -3.8690      2.00000
     10      -1.9847      0.00000
     11      -0.5983      0.00000
     12       0.2378      0.00000
     13       1.6964      0.00000

 k-point    28 :       0.3871    0.0323    0.0000
  band No.  band energies     occupation 
      1     -14.9864      2.00000
      2     -14.9529      2.00000
      3      -9.6484      2.00000
      4      -8.3202      2.00000
      5      -5.5581      2.00000
      6      -5.0666      2.00000
      7      -4.6926      2.00000
      8      -4.4818      2.00000
      9      -3.9621      2.00000
     10      -2.0442      0.00000
     11      -0.6185      0.00000
     12       0.1760      0.00000
     13       1.6925      0.00000

 k-point    29 :       0.4194    0.0323    0.0000
  band No.  band energies     occupation 
      1     -14.9386      2.00000
      2     -14.9142      2.00000
      3      -9.6903      2.00000
      4      -8.4138      2.00000
      5      -5.5064      2.00000
      6      -5.1332      2.00000
      7      -4.7301      2.00000
      8      -4.5132      2.00000
      9      -4.0315      2.00000
     10      -2.0944      0.00000
     11      -0.6230      0.00000
     12       0.1233      0.00000
     13       1.6872      0.00000

 k-point    30 :       0.4516    0.0323    0.0000
  band No.  band energies     occupation 
      1     -14.9072      2.00000
      2     -14.8912      2.00000
      3      -9.7181      2.00000
      4      -8.4722      2.00000
      5      -5.4392      2.00000
      6      -5.2072      2.00000
      7      -4.7533      2.00000
      8      -4.5324      2.00000
      9      -4.0729      2.00000
     10      -2.1280      0.00000
     11      -0.6206      0.00000
     12       0.0876      0.00000
     13       1.6829      0.00000

 k-point    31 :       0.4839    0.0323    0.0000
  band No.  band energies     occupation 
      1     -14.8958      2.00000
      2     -14.8839      2.00000
      3      -9.7279      2.00000
      4      -8.4920      2.00000
      5      -5.3959      2.00000
      6      -5.2525      2.00000
      7      -4.7612      2.00000
      8      -4.5389      2.00000
      9      -4.0865      2.00000
     10      -2.1397      0.00000
     11      -0.6189      0.00000
     12       0.0748      0.00000
     13       1.6812      0.00000

 k-point    32 :       0.0645    0.0645    0.0000
  band No.  band energies     occupation 
      1     -15.6037      2.00000
      2     -15.5124      2.00000
      3      -9.4143      2.00000
      4      -7.0903      2.00000
      5      -4.3724      2.00000
      6      -4.2413      2.00000
      7      -3.9360      2.00000
      8      -3.8540      2.00000
      9      -3.3280      2.00000
     10      -2.2395      0.00000
     11      -0.4895      0.00000
     12       0.8295      0.00000
     13       1.5191      0.00000

 k-point    33 :       0.0968    0.0645    0.0000
  band No.  band energies     occupation 
      1     -15.5609      2.00000
      2     -15.4722      2.00000
      3      -9.4098      2.00000
      4      -7.1577      2.00000
      5      -4.5850      2.00000
      6      -4.4028      2.00000
      7      -4.0117      2.00000
      8      -3.9296      2.00000
      9      -3.3301      2.00000
     10      -2.0873      0.00000
     11      -0.2697      0.00000
     12       0.6202      0.00000
     13       1.5121      0.00000

 k-point    34 :       0.1290    0.0645    0.0000
  band No.  band energies     occupation 
      1     -15.5076      2.00000
      2     -15.4223      2.00000
      3      -9.4081      2.00000
      4      -7.2491      2.00000
      5      -4.8026      2.00000
      6      -4.5496      2.00000
      7      -4.1067      2.00000
      8      -4.0139      2.00000
      9      -3.3461      2.00000
     10      -1.9558      0.00000
     11      -0.0818      0.00000
     12       0.4481      0.00000
     13       1.5017      0.00000

 k-point    35 :       0.1613    0.0645    0.0000
  band No.  band energies     occupation 
      1     -15.4452      2.00000
      2     -15.3642      2.00000
      3      -9.4120      2.00000
      4      -7.3647      2.00000
      5      -5.0091      2.00000
      6      -4.6732      2.00000
      7      -4.2130      2.00000
      8      -4.1031      2.00000
      9      -3.3788      2.00000
     10      -1.8590      0.00000
     11      -0.0366      0.00000
     12       0.4011      0.00000
     13       1.4985      0.00000

 k-point    36 :       0.1935    0.0645    0.0000
  band No.  band energies     occupation 
      1     -15.3755      2.00000
      2     -15.2996      2.00000
      3      -9.4243      2.00000
      4      -7.5022      2.00000
[...]
     10      -1.6300      0.00000
     11      -0.1750      0.00000
     12       0.6413      0.00000
     13       1.3799      0.00000

 k-point    79 :       0.2903    0.1935    0.0000
  band No.  band energies     occupation 
      1     -14.9349      2.00000
      2     -14.9039      2.00000
      3      -9.6409      2.00000
      4      -8.2987      2.00000
      5      -5.4813      2.00000
      6      -5.3837      2.00000
      7      -5.1464      2.00000
      8      -4.6865      2.00000
      9      -3.9733      2.00000
     10      -1.6544      0.00000
     11      -0.2147      0.00000
     12       0.5903      0.00000
     13       1.3812      0.00000

 k-point    80 :       0.3226    0.1935    0.0000
  band No.  band energies     occupation 
      1     -14.8884      2.00000
      2     -14.8653      2.00000
      3      -9.6753      2.00000
      4      -8.3748      2.00000
      5      -5.5439      2.00000
      6      -5.4823      2.00000
      7      -5.0899      2.00000
      8      -4.6753      2.00000
      9      -4.0785      2.00000
     10      -1.6801      0.00000
     11      -0.2522      0.00000
     12       0.5544      0.00000
     13       1.3711      0.00000

 k-point    81 :       0.3548    0.1935    0.0000
  band No.  band energies     occupation 
      1     -14.8548      2.00000
      2     -14.8390      2.00000
      3      -9.7007      2.00000
      4      -8.4279      2.00000
      5      -5.5935      2.00000
      6      -5.5495      2.00000
      7      -5.0141      2.00000
      8      -4.6836      2.00000
      9      -4.1621      2.00000
     10      -1.7011      0.00000
     11      -0.2801      0.00000
     12       0.5303      0.00000
     13       1.3596      0.00000

 k-point    82 :       0.3871    0.1935    0.0000
  band No.  band energies     occupation 
      1     -14.8366      2.00000
      2     -14.8262      2.00000
      3      -9.7141      2.00000
      4      -8.4552      2.00000
      5      -5.6200      2.00000
      6      -5.5834      2.00000
      7      -4.9528      2.00000
      8      -4.7048      2.00000
      9      -4.2081      2.00000
     10      -1.7129      0.00000
     11      -0.2947      0.00000
     12       0.5180      0.00000
     13       1.3526      0.00000

 k-point    83 :       0.2258    0.2258    0.0000
  band No.  band energies     occupation 
      1     -14.9932      2.00000
      2     -14.9539      2.00000
      3      -9.5973      2.00000
      4      -8.1935      2.00000
      5      -5.4102      2.00000
      6      -5.2419      2.00000
      7      -5.2138      2.00000
      8      -4.7148      2.00000
      9      -3.8542      2.00000
     10      -1.6083      0.00000
     11      -0.1249      0.00000
     12       0.5799      0.00000
     13       1.5182      0.00000

 k-point    84 :       0.2581    0.2258    0.0000
  band No.  band energies     occupation 
      1     -14.9367      2.00000
      2     -14.9048      2.00000
      3      -9.6339      2.00000
      4      -8.2818      2.00000
      5      -5.4822      2.00000
      6      -5.3880      2.00000
      7      -5.2101      2.00000
      8      -4.6888      2.00000
      9      -3.9627      2.00000
     10      -1.6143      0.00000
     11      -0.1322      0.00000
     12       0.4831      0.00000
     13       1.6046      0.00000

 k-point    85 :       0.2903    0.2258    0.0000
  band No.  band energies     occupation 
      1     -14.8884      2.00000
      2     -14.8639      2.00000
      3      -9.6668      2.00000
      4      -8.3549      2.00000
      5      -5.5794      2.00000
      6      -5.5114      2.00000
      7      -5.1334      2.00000
      8      -4.6684      2.00000
      9      -4.0745      2.00000
     10      -1.6261      0.00000
     11      -0.1591      0.00000
     12       0.4200      0.00000
     13       1.6334      0.00000

 k-point    86 :       0.3226    0.2258    0.0000
  band No.  band energies     occupation 
      1     -14.8509      2.00000
      2     -14.8335      2.00000
      3      -9.6929      2.00000
      4      -8.4095      2.00000
      5      -5.6567      2.00000
      6      -5.6040      2.00000
      7      -5.0356      2.00000
      8      -4.6638      2.00000
      9      -4.1772      2.00000
     10      -1.6387      0.00000
     11      -0.1906      0.00000
     12       0.3806      0.00000
     13       1.6387      0.00000

 k-point    87 :       0.3548    0.2258    0.0000
  band No.  band energies     occupation 
      1     -14.8265      2.00000
      2     -14.8153      2.00000
      3      -9.7097      2.00000
      4      -8.4433      2.00000
      5      -5.7042      2.00000
      6      -5.6617      2.00000
      7      -4.9406      2.00000
      8      -4.6820      2.00000
      9      -4.2514      2.00000
     10      -1.6481      0.00000
     11      -0.2140      0.00000
     12       0.3585      0.00000
     13       1.6372      0.00000

 k-point    88 :       0.3871    0.2258    0.0000
  band No.  band energies     occupation 
      1     -14.8177      2.00000
      2     -14.8096      2.00000
      3      -9.7155      2.00000
      4      -8.4548      2.00000
      5      -5.7200      2.00000
      6      -5.6814      2.00000
      7      -4.8925      2.00000
      8      -4.7020      2.00000
      9      -4.2783      2.00000
     10      -1.6516      0.00000
     11      -0.2225      0.00000
     12       0.3512      0.00000
     13       1.6362      0.00000

 k-point    89 :       0.2581    0.2581    0.0000
  band No.  band energies     occupation 
      1     -14.8884      2.00000
      2     -14.8634      2.00000
      3      -9.6638      2.00000
      4      -8.3476      2.00000
      5      -5.5948      2.00000
      6      -5.5188      2.00000
      7      -5.1489      2.00000
      8      -4.6653      2.00000
      9      -4.0730      2.00000
     10      -1.6073      0.00000
     11      -0.1156      0.00000
     12       0.3608      0.00000
     13       1.7660      0.00000

 k-point    90 :       0.2903    0.2581    0.0000
  band No.  band energies     occupation 
      1     -14.8489      2.00000
      2     -14.8306      2.00000
      3      -9.6885      2.00000
      4      -8.3989      2.00000
      5      -5.6929      2.00000
      6      -5.6322      2.00000
      7      -5.0473      2.00000
      8      -4.6493      2.00000
      9      -4.1861      2.00000
     10      -1.6057      0.00000
     11      -0.1230      0.00000
     12       0.2783      0.00000
     13       1.8491      0.00000

 k-point    91 :       0.3226    0.2581    0.0000
  band No.  band energies     occupation 
      1     -14.8204      2.00000
      2     -14.8084      2.00000
      3      -9.7062      2.00000
      4      -8.4339      2.00000
      5      -5.7600      2.00000
      6      -5.7144      2.00000
      7      -4.9353      2.00000
      8      -4.6513      2.00000
      9      -4.2870      2.00000
     10      -1.6063      0.00000
     11      -0.1412      0.00000
     12       0.2301      0.00000
     13       1.8810      0.00000

 k-point    92 :       0.3548    0.2581    0.0000
  band No.  band energies     occupation 
      1     -14.8050      2.00000
      2     -14.7977      2.00000
      3      -9.7154      2.00000
      4      -8.4518      2.00000
      5      -5.7928      2.00000
      6      -5.7582      2.00000
      7      -4.8402      2.00000
      8      -4.6782      2.00000
      9      -4.3495      2.00000
     10      -1.6071      0.00000
     11      -0.1548      0.00000
     12       0.2082      0.00000
     13       1.8929      0.00000

 k-point    93 :       0.2903    0.2903    0.0000
  band No.  band energies     occupation 
      1     -14.8184      2.00000
      2     -14.8061      2.00000
      3      -9.7048      2.00000
      4      -8.4304      2.00000
      5      -5.7796      2.00000
      6      -5.7327      2.00000
      7      -4.9343      2.00000
      8      -4.6367      2.00000
      9      -4.3018      2.00000
     10      -1.5917      0.00000
     11      -0.1048      0.00000
     12       0.1740      0.00000
     13       1.9889      0.00000

 k-point    94 :       0.3226    0.2903    0.0000
  band No.  band energies     occupation 
      1     -14.7986      2.00000
      2     -14.7915      2.00000
      3      -9.7149      2.00000
      4      -8.4493      2.00000
      5      -5.8306      2.00000
      6      -5.8000      2.00000
      7      -4.8164      2.00000
      8      -4.6419      2.00000
      9      -4.4047      2.00000
     10      -1.5835      0.00000
     11      -0.0981      0.00000
     12       0.1106      0.00000
     13       2.0575      0.00000

 k-point    95 :       0.3548    0.2903    0.0000
  band No.  band energies     occupation 
      1     -14.7913      2.00000
      2     -14.7872      2.00000
      3      -9.7184      2.00000
      4      -8.4556      2.00000
      5      -5.8461      2.00000
      6      -5.8248      2.00000
      7      -4.7386      2.00000
      8      -4.6696      2.00000
      9      -4.4509      2.00000
     10      -1.5808      0.00000
     11      -0.0968      0.00000
     12       0.0895      0.00000
     13       2.0979      0.00000

 k-point    96 :       0.3226    0.3226    0.0000
  band No.  band energies     occupation 
      1     -14.7865      2.00000
      2     -14.7838      2.00000
      3      -9.7193      2.00000
      4      -8.4566      2.00000
      5      -5.8621      2.00000
      6      -5.8501      2.00000
      7      -4.6976      2.00000
      8      -4.6406      2.00000
      9      -4.5173      2.00000
     10      -1.5717      0.00000
     11      -0.0532      0.00000
     12       0.0245      0.00000
     13       2.1476      0.00000


--------------------------------------------------------------------------------------------------------


 soft charge-density along one line, spin component           1
         0         1         2         3         4         5         6         7         8         9
 total charge-density along one line
 
 pseudopotential strength for first ion, spin component:           1
 29.521 -33.278   0.000  -0.011  -0.000   0.000   0.070  -0.000
-33.278  40.890  -0.000   0.017   0.000  -0.000  -0.010   0.000
  0.000  -0.000   4.922  -0.000  -0.000   0.451  -0.000  -0.000
 -0.011   0.017  -0.000   4.931   0.000  -0.000   0.548   0.000
 -0.000   0.000  -0.000   0.000   4.922  -0.000   0.000   0.451
  0.000  -0.000   0.451  -0.000  -0.000 *******   0.000   0.000
  0.070  -0.010  -0.000   0.548   0.000   0.000 *******  -0.000
 -0.000   0.000  -0.000   0.000   0.451   0.000  -0.000 *******
 -0.000   0.000  -0.000   0.000  -0.001  -0.000   0.000  -0.003
 -0.000   0.000   0.001   0.000   0.000   0.013   0.000   0.000
  0.013  -0.010  -0.000   0.008   0.000  -0.000   0.046   0.000
  0.000  -0.000   0.000  -0.000   0.001   0.000  -0.000   0.013
  0.000  -0.000  -0.001  -0.000  -0.000  -0.003  -0.000  -0.000
 total augmentation occupancy for first ion, spin component:           1
  2.000   0.000   0.000   0.000   0.000   0.000   0.000   0.000   0.000   0.000   0.000   0.000   0.000
  0.000   0.000   0.000   0.000   0.000   0.000   0.000   0.000   0.000   0.000   0.000   0.000   0.000
  0.000   0.000   0.333   0.000   0.000   0.000   0.000   0.000   0.000   0.000   0.000   0.000   0.000
  0.000   0.000   0.000   0.333   0.000   0.000   0.000   0.000   0.000   0.000   0.000   0.000   0.000
  0.000   0.000   0.000   0.000   0.333   0.000   0.000   0.000   0.000   0.000   0.000   0.000   0.000
  0.000   0.000   0.000   0.000   0.000   0.000   0.000   0.000   0.000   0.000   0.000   0.000   0.000
  0.000   0.000   0.000   0.000   0.000   0.000   0.000   0.000   0.000   0.000   0.000   0.000   0.000
  0.000   0.000   0.000   0.000   0.000   0.000   0.000   0.000   0.000   0.000   0.000   0.000   0.000
  0.000   0.000   0.000   0.000   0.000   0.000   0.000   0.000   0.000   0.000   0.000   0.000   0.000
  0.000   0.000   0.000   0.000   0.000   0.000   0.000   0.000   0.000   0.000   0.000   0.000   0.000
  0.000   0.000   0.000   0.000   0.000   0.000   0.000   0.000   0.000   0.000   0.000   0.000   0.000
  0.000   0.000   0.000   0.000   0.000   0.000   0.000   0.000   0.000   0.000   0.000   0.000   0.000
  0.000   0.000   0.000   0.000   0.000   0.000   0.000   0.000   0.000   0.000   0.000   0.000   0.000


------------------------ aborting loop because EDIFF is reached ----------------------------------------


 


 total charge     
 
# of ion       s       p       d       tot
------------------------------------------
    1        1.458   0.902   0.157   2.518
    2        1.458   0.902   0.157   2.518
    3        1.484   2.263   0.013   3.761
    4        1.484   2.264   0.013   3.761
--------------------------------------------------
tot          5.885   6.331   0.341  12.557
 
    CHARGE:  cpu time    0.1462: real time    0.1462
    FORLOC:  cpu time    0.0023: real time    0.0031
    FORNL :  cpu time    0.2366: real time    0.2366
    STRESS:  cpu time    0.7159: real time    0.7239
    FORCOR:  cpu time    0.0544: real time    0.0549
    FORHAR:  cpu time    0.0157: real time    0.0158
    OFIELD:  cpu time    0.0006: real time    0.0006

 ---------------------------------------------------------------------------------------------

         DFTD3 V3.0 Rev 1        
 IVDW         = 11
 DF pbe       
 parameters
 VDW_S6       =    1.0000
 VDW_S8       =    0.7220
 VDW_SR       =    1.2170
 rs18     =    1.0000
 alpha6   =   14.0000
 alpha8   =   16.0000
 k1-k3    =   16.0000    1.3333   -4.0000
 VDW_RADIUS   =   50.2022 A
 VDW_CNRADIUS =   21.1671 A
 Edisp (eV)   -0.62943

 E6    (eV) :    -0.2093
 E8    (eV) :    -0.4202
 % E8        : 66.75
    FORVDW:  cpu time    0.0405: real time    0.0419

  FORCE on cell =-STRESS in cart. coord.  units (eV):
  Direction    XX          YY          ZZ          XY          YZ          ZX
  --------------------------------------------------------------------------------------
  Alpha Z     4.00553     4.00553     4.00553
  Ewald    1541.80715  1541.80693 -1910.61447    -0.00021    -0.00007     0.00015
  Hartree  1650.97432  1650.97434 -1594.00489     0.00002     0.00000    -0.00000
  E(xc)     -72.32000   -72.32000   -73.37028    -0.00000     0.00000    -0.00000
  Local   -3418.61753 -3418.61757  3273.88963    -0.00006     0.00003    -0.00007
  n-local   151.37722   152.56009   153.30599    -1.80948    -0.28578    -0.53255
  augment   -27.10274   -27.10269   -28.31209     0.00004    -0.00000     0.00001
  Kinetic   167.41252   172.50547   175.71325    -5.09807     0.15707     0.40444
  Fock        0.00000     0.00000     0.00000     0.00000     0.00000     0.00000
  vdW        -0.62035    -0.62035    -0.61735     0.00000     0.00000    -0.00000
  -------------------------------------------------------------------------------------
  Total       0.05393     0.05393    -0.00468     0.00000     0.00000    -0.00000
  in kB       0.22942     0.22942    -0.01991     0.00000     0.00000    -0.00000
  external pressure =        0.15 kB  Pullay stress =        0.00 kB


 VOLUME and BASIS-vectors are now :
 -----------------------------------------------------------------------------
  energy-cutoff  :      300.00
  volume of cell :      376.64
      direct lattice vectors                 reciprocal lattice vectors
     4.220004082  0.000000000  0.000000000     0.236966595  0.136812601  0.000000000
    -2.110000342  3.654631169  0.000000000     0.000000000  0.273625423  0.000000000
     0.000000000  0.000000000 24.421331406     0.000000000  0.000000000  0.040947808

  length of vectors
     4.220004082  4.220003605 24.421331406     0.273625392  0.273625423  0.040947808


 FORCES acting on ions
    electron-ion (+dipol)            ewald-force                    non-local-force                 convergence-correction
 -----------------------------------------------------------------------------------------------
   -.806E-05 -.328E-06 0.442E+02   0.534E-04 -.261E-04 -.430E+02   -.139E-16 0.139E-16 -.129E+01   0.219E-06 0.333E-06 -.235E-02
   0.787E-05 -.173E-07 -.442E+02   -.544E-04 0.243E-04 0.430E+02   0.191E-16 -.139E-16 0.129E+01   0.179E-06 0.356E-06 0.238E-02
   -.862E-03 0.530E-03 0.253E+03   -.552E-04 0.269E-04 -.256E+03   0.347E-17 0.000E+00 0.294E+01   -.261E-05 -.392E-05 -.599E-02
   0.888E-03 -.486E-03 -.253E+03   0.563E-04 -.251E-04 0.256E+03   -.347E-17 0.000E+00 -.294E+01   -.209E-05 -.422E-05 0.611E-02
 -----------------------------------------------------------------------------------------------
   0.254E-04 0.441E-04 -.328E-02   -.295E-14 0.868E-15 -.284E-13   0.520E-17 0.000E+00 0.444E-15   -.430E-05 -.745E-05 0.145E-03
 
 
 POSITION                                       TOTAL-FORCE (eV/Angst)
 -----------------------------------------------------------------------------------
      0.00000      0.00000     10.80166         0.000000     -0.000000     -0.030487
      0.00000      0.00000     13.61969         0.000000      0.000000      0.030487
      2.11000      1.21821      9.47963        -0.000000     -0.000000      0.016271
     -0.00000      2.43642     14.94170        -0.000000      0.000000     -0.016271
 -----------------------------------------------------------------------------------
    total drift:                                0.000021      0.000037     -0.003136


--------------------------------------------------------------------------------------------------------



  FREE ENERGIE OF THE ION-ELECTRON SYSTEM (eV)
  ---------------------------------------------------
  free  energy   TOTEN  =       -12.71372106 eV

  energy  without entropy=      -12.71372106  energy(sigma->0) =      -12.71372106
 


--------------------------------------------------------------------------------------------------------


    POTLOK:  cpu time    0.0577: real time    0.0577


--------------------------------------------------------------------------------------------------------


 stress matrix after NEB project (eV)
      0.05393      0.00000     -0.00000
      0.00000      0.05393      0.00000
      0.00000      0.00000     -0.00468
  FORCES: max atom, RMS     0.030487    0.024436
  FORCE total and by dimension    0.048872    0.030487
  Stress total and by dimension    0.076415    0.053932
 writing wavefunctions
     LOOP+:  cpu time   30.1138: real time   31.4637
    4ORBIT:  cpu time    0.0000: real time    0.0000
 


 total charge     
 
# of ion       s       p       d       tot
------------------------------------------
    1        1.458   0.902   0.157   2.518
    2        1.458   0.902   0.157   2.518
    3        1.484   2.263   0.013   3.761
    4        1.484   2.264   0.013   3.761
--------------------------------------------------
tot          5.885   6.331   0.341  12.557
 
 BZINTS: Fermi energy: -3.319377; 18.000000 electrons
         Band energy:-142.108202;  BLOECHL correction:  0.000000

 total amount of memory used by VASP MPI-rank0    50610. kBytes
=======================================================================

   base      :      30000. kBytes
   nonl-proj :       7532. kBytes
   fftplans  :       2008. kBytes
   grid      :       3295. kBytes
   one-center:          8. kBytes
   wavefun   :       7767. kBytes
 
  
  
 General timing and accounting informations for this job:
 ========================================================
  
                  Total CPU time used (sec):       33.250
                            User time (sec):       32.355
                          System time (sec):        0.895
                         Elapsed time (sec):       35.867
  
                   Maximum memory used (kb):       81140.
                   Average memory used (kb):           0.
  
                          Minor page faults:        31194
                          Major page faults:            0
                 Voluntary context switches:          770
